Program Version,EnergyPlus, Version 23.1.0-87ed9199d4, YMD=2026.02.18 01:33
1,5,Environment Title[],Latitude[deg],Longitude[deg],Time Zone[],Elevation[m]
2,8,Day of Simulation[],Month[],Day of Month[],DST Indicator[1=yes 0=no],Hour[],StartMinute[],EndMinute[],DayType
3,5,Cumulative Day of Simulation[],Month[],Day of Month[],DST Indicator[1=yes 0=no],DayType  ! When Daily Meters Requested
4,2,Cumulative Days of Simulation[],Month[]  ! When Monthly Meters Requested
5,1,Cumulative Days of Simulation[] ! When Run Period Meters Requested
6,1,Calendar Year of Simulation[] ! When Annual Meters Requested
135,1,Electricity:Facility [J] !Hourly
3420,1,ElectricityNet:Facility [J] !Hourly
End of Data Dictionary
1,RUNPERIOD 1,  -2.16, -79.88,  -5.00,   5.80
2,1,11, 7, 1, 1, 0.00,60.00,Sunday
135,112463555.31351072
3420,112463555.31351073
2,1,11, 7, 1, 2, 0.00,60.00,Sunday
135,104593995.5311516
3420,104593995.53115161
2,1,11, 7, 1, 3, 0.00,60.00,Sunday
135,87788678.0840384
3420,87788678.08403842
2,1,11, 7, 1, 4, 0.00,60.00,Sunday
135,112041123.97933128
3420,112041123.97933127
2,1,11, 7, 1, 5, 0.00,60.00,Sunday
135,105896949.66780081
3420,105896949.66780078
2,1,11, 7, 1, 6, 0.00,60.00,Sunday
135,108041233.6993923
3420,108041233.69939232
2,1,11, 7, 1, 7, 0.00,60.00,Sunday
135,115344924.95553958
3420,115344924.95553958
2,1,11, 7, 1, 8, 0.00,60.00,Sunday
135,114169712.25063397
3420,114169712.25063397
2,1,11, 7, 1, 9, 0.00,60.00,Sunday
135,102750545.03692397
3420,102750545.03692399
2,1,11, 7, 1,10, 0.00,60.00,Sunday
135,143546019.30641735
3420,143546019.30641735
2,1,11, 7, 1,11, 0.00,60.00,Sunday
135,157457274.968956
3420,157457274.968956
2,1,11, 7, 1,12, 0.00,60.00,Sunday
135,128208803.6563977
3420,128208803.65639773
2,1,11, 7, 1,13, 0.00,60.00,Sunday
135,173345082.38073975
3420,173345082.38073975
2,1,11, 7, 1,14, 0.00,60.00,Sunday
135,179605784.11903793
3420,179605784.11903793
2,1,11, 7, 1,15, 0.00,60.00,Sunday
135,138347625.63972074
3420,138347625.63972074
2,1,11, 7, 1,16, 0.00,60.00,Sunday
135,185167943.63762748
3420,185167943.63762748
2,1,11, 7, 1,17, 0.00,60.00,Sunday
135,203519575.0121541
3420,203519575.01215416
2,1,11, 7, 1,18, 0.00,60.00,Sunday
135,142102276.35277495
3420,142102276.35277495
2,1,11, 7, 1,19, 0.00,60.00,Sunday
135,186925959.96453243
3420,186925959.9645324
2,1,11, 7, 1,20, 0.00,60.00,Sunday
135,163527256.93604082
3420,163527256.93604082
2,1,11, 7, 1,21, 0.00,60.00,Sunday
135,108300864.66077846
3420,108300864.66077845
2,1,11, 7, 1,22, 0.00,60.00,Sunday
135,128513955.63119468
3420,128513955.63119468
2,1,11, 7, 1,23, 0.00,60.00,Sunday
135,118604313.91125569
3420,118604313.91125569
2,1,11, 7, 1,24, 0.00,60.00,Sunday
135,105087975.23640719
3420,105087975.2364072
2,2,11, 8, 0, 1, 0.00,60.00,Monday
135,134170254.54313715
3420,134170254.54313716
2,2,11, 8, 0, 2, 0.00,60.00,Monday
135,119566716.02868259
3420,119566716.02868259
2,2,11, 8, 0, 3, 0.00,60.00,Monday
135,100272145.0672918
3420,100272145.06729181
2,2,11, 8, 0, 4, 0.00,60.00,Monday
135,126229092.69675656
3420,126229092.69675657
2,2,11, 8, 0, 5, 0.00,60.00,Monday
135,115969875.13944042
3420,115969875.13944042
2,2,11, 8, 0, 6, 0.00,60.00,Monday
135,104080285.26176971
3420,104080285.26176971
2,2,11, 8, 0, 7, 0.00,60.00,Monday
135,139082207.42009667
3420,139082207.4200967
2,2,11, 8, 0, 8, 0.00,60.00,Monday
135,171538997.8760885
3420,171538997.8760885
2,2,11, 8, 0, 9, 0.00,60.00,Monday
135,351565344.6060177
3420,351565344.6060177
2,2,11, 8, 0,10, 0.00,60.00,Monday
135,373222657.0901433
3420,373222657.0901434
2,2,11, 8, 0,11, 0.00,60.00,Monday
135,394240889.3270558
3420,394240889.3270558
2,2,11, 8, 0,12, 0.00,60.00,Monday
135,408474443.48515505
3420,408474443.4851551
2,2,11, 8, 0,13, 0.00,60.00,Monday
135,388846628.2548132
3420,388846628.2548132
2,2,11, 8, 0,14, 0.00,60.00,Monday
135,418273353.9141954
3420,418273353.9141954
2,2,11, 8, 0,15, 0.00,60.00,Monday
135,422516566.1215358
3420,422516566.1215358
2,2,11, 8, 0,16, 0.00,60.00,Monday
135,424309176.50965226
3420,424309176.50965226
2,2,11, 8, 0,17, 0.00,60.00,Monday
135,424683889.777657
3420,424683889.777657
2,2,11, 8, 0,18, 0.00,60.00,Monday
135,342200155.9773005
3420,342200155.9773005
2,2,11, 8, 0,19, 0.00,60.00,Monday
135,320848612.07414246
3420,320848612.07414246
2,2,11, 8, 0,20, 0.00,60.00,Monday
135,263288299.03278384
3420,263288299.03278384
2,2,11, 8, 0,21, 0.00,60.00,Monday
135,221825411.0094608
3420,221825411.0094608
2,2,11, 8, 0,22, 0.00,60.00,Monday
135,198121298.35954672
3420,198121298.35954678
2,2,11, 8, 0,23, 0.00,60.00,Monday
135,152177181.57175413
3420,152177181.57175416
2,2,11, 8, 0,24, 0.00,60.00,Monday
135,142706330.01532158
3420,142706330.0153216
2,3,11, 9, 0, 1, 0.00,60.00,Tuesday
135,101130441.9481326
3420,101130441.94813262
2,3,11, 9, 0, 2, 0.00,60.00,Tuesday
135,130334717.07855462
3420,130334717.0785546
2,3,11, 9, 0, 3, 0.00,60.00,Tuesday
135,118274270.6292092
3420,118274270.6292092
2,3,11, 9, 0, 4, 0.00,60.00,Tuesday
135,99218192.21203774
3420,99218192.21203774
2,3,11, 9, 0, 5, 0.00,60.00,Tuesday
135,122995112.50799504
3420,122995112.50799504
2,3,11, 9, 0, 6, 0.00,60.00,Tuesday
135,111743522.47476517
3420,111743522.47476517
2,3,11, 9, 0, 7, 0.00,60.00,Tuesday
135,132007410.88849473
3420,132007410.88849473
2,3,11, 9, 0, 8, 0.00,60.00,Tuesday
135,166218033.38983345
3420,166218033.38983348
2,3,11, 9, 0, 9, 0.00,60.00,Tuesday
135,345496230.6225965
3420,345496230.6225965
2,3,11, 9, 0,10, 0.00,60.00,Tuesday
135,377125666.40562975
3420,377125666.4056298
2,3,11, 9, 0,11, 0.00,60.00,Tuesday
135,395445456.8297437
3420,395445456.82974374
2,3,11, 9, 0,12, 0.00,60.00,Tuesday
135,402211620.63021255
3420,402211620.6302126
2,3,11, 9, 0,13, 0.00,60.00,Tuesday
135,388116633.64416295
3420,388116633.64416295
2,3,11, 9, 0,14, 0.00,60.00,Tuesday
135,413264589.9698051
3420,413264589.9698051
2,3,11, 9, 0,15, 0.00,60.00,Tuesday
135,420216855.3693982
3420,420216855.3693982
2,3,11, 9, 0,16, 0.00,60.00,Tuesday
135,426212772.5919091
3420,426212772.59190917
2,3,11, 9, 0,17, 0.00,60.00,Tuesday
135,426123279.2861406
3420,426123279.2861406
2,3,11, 9, 0,18, 0.00,60.00,Tuesday
135,341748546.60558426
3420,341748546.6055842
2,3,11, 9, 0,19, 0.00,60.00,Tuesday
135,317701153.5991626
3420,317701153.5991626
2,3,11, 9, 0,20, 0.00,60.00,Tuesday
135,265982289.25546104
3420,265982289.25546104
2,3,11, 9, 0,21, 0.00,60.00,Tuesday
135,224260951.83944732
3420,224260951.8394473
2,3,11, 9, 0,22, 0.00,60.00,Tuesday
135,203426868.38956052
3420,203426868.38956046
2,3,11, 9, 0,23, 0.00,60.00,Tuesday
135,156025182.90073016
3420,156025182.9007302
2,3,11, 9, 0,24, 0.00,60.00,Tuesday
135,147599277.888675
3420,147599277.88867503
2,4,11,10, 0, 1, 0.00,60.00,Wednesday
135,105758464.23733768
3420,105758464.23733766
2,4,11,10, 0, 2, 0.00,60.00,Wednesday
135,137836802.61893094
3420,137836802.61893094
2,4,11,10, 0, 3, 0.00,60.00,Wednesday
135,124379777.61414732
3420,124379777.6141473
2,4,11,10, 0, 4, 0.00,60.00,Wednesday
135,101447145.65415537
3420,101447145.6541554
2,4,11,10, 0, 5, 0.00,60.00,Wednesday
135,125383082.37674013
3420,125383082.37674011
2,4,11,10, 0, 6, 0.00,60.00,Wednesday
135,112831551.53099091
3420,112831551.5309909
2,4,11,10, 0, 7, 0.00,60.00,Wednesday
135,139582925.21435755
3420,139582925.21435755
2,4,11,10, 0, 8, 0.00,60.00,Wednesday
135,178281453.62347656
3420,178281453.62347656
2,4,11,10, 0, 9, 0.00,60.00,Wednesday
135,353550333.91523707
3420,353550333.91523707
2,4,11,10, 0,10, 0.00,60.00,Wednesday
135,390315950.6472981
3420,390315950.6472981
2,4,11,10, 0,11, 0.00,60.00,Wednesday
135,404176702.74346614
3420,404176702.7434662
2,4,11,10, 0,12, 0.00,60.00,Wednesday
135,412493149.3716438
3420,412493149.3716439
2,4,11,10, 0,13, 0.00,60.00,Wednesday
135,395541515.49911994
3420,395541515.49911994
2,4,11,10, 0,14, 0.00,60.00,Wednesday
135,422338610.086231
3420,422338610.086231
2,4,11,10, 0,15, 0.00,60.00,Wednesday
135,426325320.0044758
3420,426325320.00447583
2,4,11,10, 0,16, 0.00,60.00,Wednesday
135,429857819.485881
3420,429857819.48588085
2,4,11,10, 0,17, 0.00,60.00,Wednesday
135,429917175.79838055
3420,429917175.79838055
2,4,11,10, 0,18, 0.00,60.00,Wednesday
135,345560067.29008096
3420,345560067.29008096
2,4,11,10, 0,19, 0.00,60.00,Wednesday
135,326472299.23477674
3420,326472299.23477674
2,4,11,10, 0,20, 0.00,60.00,Wednesday
135,296122553.78752
3420,296122553.78752
2,4,11,10, 0,21, 0.00,60.00,Wednesday
135,250023730.55633938
3420,250023730.55633938
2,4,11,10, 0,22, 0.00,60.00,Wednesday
135,220959243.39902234
3420,220959243.39902234
2,4,11,10, 0,23, 0.00,60.00,Wednesday
135,166525761.2768182
3420,166525761.2768182
2,4,11,10, 0,24, 0.00,60.00,Wednesday
135,156803004.64008278
3420,156803004.64008278
2,5,11,11, 0, 1, 0.00,60.00,Holiday
135,97311279.50941145
3420,97311279.50941147
2,5,11,11, 0, 2, 0.00,60.00,Holiday
135,129833251.54153243
3420,129833251.54153244
2,5,11,11, 0, 3, 0.00,60.00,Holiday
135,119293089.09773171
3420,119293089.09773171
2,5,11,11, 0, 4, 0.00,60.00,Holiday
135,95776712.23615329
3420,95776712.23615329
2,5,11,11, 0, 5, 0.00,60.00,Holiday
135,119323151.84669504
3420,119323151.84669507
2,5,11,11, 0, 6, 0.00,60.00,Holiday
135,107720513.55912673
3420,107720513.55912673
2,5,11,11, 0, 7, 0.00,60.00,Holiday
135,90102099.18644689
3420,90102099.18644689
2,5,11,11, 0, 8, 0.00,60.00,Holiday
135,123439392.97485307
3420,123439392.97485305
2,5,11,11, 0, 9, 0.00,60.00,Holiday
135,129608287.81503356
3420,129608287.81503356
2,5,11,11, 0,10, 0.00,60.00,Holiday
135,107711564.48769867
3420,107711564.48769867
2,5,11,11, 0,11, 0.00,60.00,Holiday
135,155961232.79636365
3420,155961232.79636365
2,5,11,11, 0,12, 0.00,60.00,Holiday
135,171122395.64003015
3420,171122395.64003015
2,5,11,11, 0,13, 0.00,60.00,Holiday
135,131471075.40792239
3420,131471075.40792239
2,5,11,11, 0,14, 0.00,60.00,Holiday
135,181959199.94591117
3420,181959199.94591117
2,5,11,11, 0,15, 0.00,60.00,Holiday
135,194512491.664168
3420,194512491.664168
2,5,11,11, 0,16, 0.00,60.00,Holiday
135,147915579.4543273
3420,147915579.4543273
2,5,11,11, 0,17, 0.00,60.00,Holiday
135,196111914.38655698
3420,196111914.38655704
2,5,11,11, 0,18, 0.00,60.00,Holiday
135,208268024.4582768
3420,208268024.4582768
2,5,11,11, 0,19, 0.00,60.00,Holiday
135,155677898.3866873
3420,155677898.3866873
2,5,11,11, 0,20, 0.00,60.00,Holiday
135,173656483.1549863
3420,173656483.15498632
2,5,11,11, 0,21, 0.00,60.00,Holiday
135,149667477.103001
3420,149667477.103001
2,5,11,11, 0,22, 0.00,60.00,Holiday
135,103681246.23511711
3420,103681246.23511711
2,5,11,11, 0,23, 0.00,60.00,Holiday
135,125823213.52484915
3420,125823213.52484918
2,5,11,11, 0,24, 0.00,60.00,Holiday
135,118478600.62054911
3420,118478600.62054914
2,6,11,12, 0, 1, 0.00,60.00,Friday
135,108491026.19124252
3420,108491026.1912425
2,6,11,12, 0, 2, 0.00,60.00,Friday
135,132722399.14954779
3420,132722399.1495478
2,6,11,12, 0, 3, 0.00,60.00,Friday
135,119321847.84076373
3420,119321847.84076373
2,6,11,12, 0, 4, 0.00,60.00,Friday
135,99890391.3927603
3420,99890391.3927603
2,6,11,12, 0, 5, 0.00,60.00,Friday
135,123464305.32828698
3420,123464305.32828698
2,6,11,12, 0, 6, 0.00,60.00,Friday
135,116268374.22995277
3420,116268374.22995277
2,6,11,12, 0, 7, 0.00,60.00,Friday
135,134694356.37269872
3420,134694356.37269872
2,6,11,12, 0, 8, 0.00,60.00,Friday
135,174178128.71546045
3420,174178128.71546042
2,6,11,12, 0, 9, 0.00,60.00,Friday
135,347794388.47992074
3420,347794388.4799208
2,6,11,12, 0,10, 0.00,60.00,Friday
135,391533068.3640905
3420,391533068.36409044
2,6,11,12, 0,11, 0.00,60.00,Friday
135,402163285.9855333
3420,402163285.9855333
2,6,11,12, 0,12, 0.00,60.00,Friday
135,409653683.0895659
3420,409653683.08956593
2,6,11,12, 0,13, 0.00,60.00,Friday
135,393943788.22972953
3420,393943788.2297296
2,6,11,12, 0,14, 0.00,60.00,Friday
135,424247712.9700507
3420,424247712.97005075
2,6,11,12, 0,15, 0.00,60.00,Friday
135,428513163.32462
3420,428513163.32462
2,6,11,12, 0,16, 0.00,60.00,Friday
135,430834473.6163815
3420,430834473.6163815
2,6,11,12, 0,17, 0.00,60.00,Friday
135,431318057.56747556
3420,431318057.5674756
2,6,11,12, 0,18, 0.00,60.00,Friday
135,345677105.167256
3420,345677105.1672561
2,6,11,12, 0,19, 0.00,60.00,Friday
135,319199154.8178739
3420,319199154.81787395
2,6,11,12, 0,20, 0.00,60.00,Friday
135,272609042.8720607
3420,272609042.8720607
2,6,11,12, 0,21, 0.00,60.00,Friday
135,234784465.1220587
3420,234784465.12205872
2,6,11,12, 0,22, 0.00,60.00,Friday
135,211138188.09365773
3420,211138188.0936577
2,6,11,12, 0,23, 0.00,60.00,Friday
135,159664518.11917418
3420,159664518.11917418
2,6,11,12, 0,24, 0.00,60.00,Friday
135,145957940.42595774
3420,145957940.42595774
2,7,11,13, 0, 1, 0.00,60.00,Saturday
135,92068237.99448907
3420,92068237.99448909
2,7,11,13, 0, 2, 0.00,60.00,Saturday
135,123921383.51803494
3420,123921383.51803494
2,7,11,13, 0, 3, 0.00,60.00,Saturday
135,113351616.41644269
3420,113351616.41644269
2,7,11,13, 0, 4, 0.00,60.00,Saturday
135,88019918.51290366
3420,88019918.51290366
2,7,11,13, 0, 5, 0.00,60.00,Saturday
135,116745075.94306089
3420,116745075.94306089
2,7,11,13, 0, 6, 0.00,60.00,Saturday
135,106702575.91463739
3420,106702575.91463739
2,7,11,13, 0, 7, 0.00,60.00,Saturday
135,141546794.4359293
3420,141546794.4359293
2,7,11,13, 0, 8, 0.00,60.00,Saturday
135,164240596.0477156
3420,164240596.0477156
2,7,11,13, 0, 9, 0.00,60.00,Saturday
135,218560088.95723858
3420,218560088.9572386
2,7,11,13, 0,10, 0.00,60.00,Saturday
135,233248563.62712348
3420,233248563.62712348
2,7,11,13, 0,11, 0.00,60.00,Saturday
135,255310999.35891718
3420,255310999.35891718
2,7,11,13, 0,12, 0.00,60.00,Saturday
135,269689512.0432328
3420,269689512.04323286
2,7,11,13, 0,13, 0.00,60.00,Saturday
135,242115347.56489992
3420,242115347.5648999
2,7,11,13, 0,14, 0.00,60.00,Saturday
135,248178154.10992822
3420,248178154.1099282
2,7,11,13, 0,15, 0.00,60.00,Saturday
135,258135301.03502035
3420,258135301.03502032
2,7,11,13, 0,16, 0.00,60.00,Saturday
135,258351039.9557133
3420,258351039.9557133
2,7,11,13, 0,17, 0.00,60.00,Saturday
135,268998361.490172
3420,268998361.490172
2,7,11,13, 0,18, 0.00,60.00,Saturday
135,258377671.1186169
3420,258377671.11861694
2,7,11,13, 0,19, 0.00,60.00,Saturday
135,210199821.64616185
3420,210199821.64616185
2,7,11,13, 0,20, 0.00,60.00,Saturday
135,165908900.80468318
3420,165908900.80468318
2,7,11,13, 0,21, 0.00,60.00,Saturday
135,110361203.75903359
3420,110361203.75903359
2,7,11,13, 0,22, 0.00,60.00,Saturday
135,130290962.39052519
3420,130290962.3905252
2,7,11,13, 0,23, 0.00,60.00,Saturday
135,121358834.72713488
3420,121358834.72713488
2,7,11,13, 0,24, 0.00,60.00,Saturday
135,97434122.2477341
3420,97434122.24773411
2,8,11,14, 0, 1, 0.00,60.00,Sunday
135,117644301.57373643
3420,117644301.57373643
2,8,11,14, 0, 2, 0.00,60.00,Sunday
135,106602928.15282145
3420,106602928.15282145
2,8,11,14, 0, 3, 0.00,60.00,Sunday
135,87929171.54365475
3420,87929171.54365475
2,8,11,14, 0, 4, 0.00,60.00,Sunday
135,112182608.97008854
3420,112182608.97008854
2,8,11,14, 0, 5, 0.00,60.00,Sunday
135,104659405.94257689
3420,104659405.94257689
2,8,11,14, 0, 6, 0.00,60.00,Sunday
135,93458885.41136056
3420,93458885.41136056
2,8,11,14, 0, 7, 0.00,60.00,Sunday
135,115376176.16744837
3420,115376176.16744837
2,8,11,14, 0, 8, 0.00,60.00,Sunday
135,108699194.88331473
3420,108699194.88331473
2,8,11,14, 0, 9, 0.00,60.00,Sunday
135,88810659.65340108
3420,88810659.65340106
2,8,11,14, 0,10, 0.00,60.00,Sunday
135,113751232.37596923
3420,113751232.37596925
2,8,11,14, 0,11, 0.00,60.00,Sunday
135,107757169.11044818
3420,107757169.1104482
2,8,11,14, 0,12, 0.00,60.00,Sunday
135,105052893.4422128
3420,105052893.4422128
2,8,11,14, 0,13, 0.00,60.00,Sunday
135,144902902.5430497
3420,144902902.5430497
2,8,11,14, 0,14, 0.00,60.00,Sunday
135,146626561.75410056
3420,146626561.7541006
2,8,11,14, 0,15, 0.00,60.00,Sunday
135,121612008.7678132
3420,121612008.7678132
2,8,11,14, 0,16, 0.00,60.00,Sunday
135,159255416.24642485
3420,159255416.24642488
2,8,11,14, 0,17, 0.00,60.00,Sunday
135,171179051.6422118
3420,171179051.6422118
2,8,11,14, 0,18, 0.00,60.00,Sunday
135,135567020.75700408
3420,135567020.75700408
2,8,11,14, 0,19, 0.00,60.00,Sunday
135,173376340.7319945
3420,173376340.7319945
2,8,11,14, 0,20, 0.00,60.00,Sunday
135,132953687.64920643
3420,132953687.64920643
2,8,11,14, 0,21, 0.00,60.00,Sunday
135,101328272.88417661
3420,101328272.8841766
2,8,11,14, 0,22, 0.00,60.00,Sunday
135,123785246.78428715
3420,123785246.78428715
2,8,11,14, 0,23, 0.00,60.00,Sunday
135,109651460.38524854
3420,109651460.38524854
2,8,11,14, 0,24, 0.00,60.00,Sunday
135,92138671.04664348
3420,92138671.04664347
2,9,11,15, 0, 1, 0.00,60.00,Monday
135,122187779.98978822
3420,122187779.9897882
2,9,11,15, 0, 2, 0.00,60.00,Monday
135,116790056.2084488
3420,116790056.2084488
2,9,11,15, 0, 3, 0.00,60.00,Monday
135,99335599.49397951
3420,99335599.49397951
2,9,11,15, 0, 4, 0.00,60.00,Monday
135,122264637.90392113
3420,122264637.90392114
2,9,11,15, 0, 5, 0.00,60.00,Monday
135,118219425.72135529
3420,118219425.72135529
2,9,11,15, 0, 6, 0.00,60.00,Monday
135,107246762.50571796
3420,107246762.50571796
2,9,11,15, 0, 7, 0.00,60.00,Monday
135,141019415.22546768
3420,141019415.2254677
2,9,11,15, 0, 8, 0.00,60.00,Monday
135,159127814.19926003
3420,159127814.19926003
2,9,11,15, 0, 9, 0.00,60.00,Monday
135,340180188.5264276
3420,340180188.5264277
2,9,11,15, 0,10, 0.00,60.00,Monday
135,364763698.3152747
3420,364763698.3152747
2,9,11,15, 0,11, 0.00,60.00,Monday
135,394684222.3491258
3420,394684222.3491258
2,9,11,15, 0,12, 0.00,60.00,Monday
135,408704213.3290938
3420,408704213.3290938
2,9,11,15, 0,13, 0.00,60.00,Monday
135,389043487.2682466
3420,389043487.2682466
2,9,11,15, 0,14, 0.00,60.00,Monday
135,420106952.13327813
3420,420106952.13327825
2,9,11,15, 0,15, 0.00,60.00,Monday
135,428218466.3782711
3420,428218466.3782712
2,9,11,15, 0,16, 0.00,60.00,Monday
135,431061861.71780014
3420,431061861.7178001
2,9,11,15, 0,17, 0.00,60.00,Monday
135,432591833.04772377
3420,432591833.0477238
2,9,11,15, 0,18, 0.00,60.00,Monday
135,347656144.641737
3420,347656144.641737
2,9,11,15, 0,19, 0.00,60.00,Monday
135,321921613.24270964
3420,321921613.24270964
2,9,11,15, 0,20, 0.00,60.00,Monday
135,274968093.2520453
3420,274968093.25204533
2,9,11,15, 0,21, 0.00,60.00,Monday
135,230322417.8297909
3420,230322417.8297909
2,9,11,15, 0,22, 0.00,60.00,Monday
135,209507835.25905263
3420,209507835.25905263
2,9,11,15, 0,23, 0.00,60.00,Monday
135,156909050.41480207
3420,156909050.4148021
2,9,11,15, 0,24, 0.00,60.00,Monday
135,146884133.4247618
3420,146884133.4247618
2,10,11,16, 0, 1, 0.00,60.00,Tuesday
135,109268041.59723616
3420,109268041.59723617
2,10,11,16, 0, 2, 0.00,60.00,Tuesday
135,130237798.28154132
3420,130237798.2815413
2,10,11,16, 0, 3, 0.00,60.00,Tuesday
135,114703352.22200216
3420,114703352.22200218
2,10,11,16, 0, 4, 0.00,60.00,Tuesday
135,98981055.79748732
3420,98981055.79748733
2,10,11,16, 0, 5, 0.00,60.00,Tuesday
135,122166871.21749836
3420,122166871.21749838
2,10,11,16, 0, 6, 0.00,60.00,Tuesday
135,121224788.94071358
3420,121224788.94071358
2,10,11,16, 0, 7, 0.00,60.00,Tuesday
135,134550644.60578454
3420,134550644.60578454
2,10,11,16, 0, 8, 0.00,60.00,Tuesday
135,167041312.54125336
3420,167041312.54125336
2,10,11,16, 0, 9, 0.00,60.00,Tuesday
135,346368568.07342833
3420,346368568.07342833
2,10,11,16, 0,10, 0.00,60.00,Tuesday
135,368441576.4858775
3420,368441576.48587745
2,10,11,16, 0,11, 0.00,60.00,Tuesday
135,386035894.7327534
3420,386035894.73275346
2,10,11,16, 0,12, 0.00,60.00,Tuesday
135,392923471.20661926
3420,392923471.20661926
2,10,11,16, 0,13, 0.00,60.00,Tuesday
135,366157583.44660836
3420,366157583.4466084
2,10,11,16, 0,14, 0.00,60.00,Tuesday
135,407211110.5252893
3420,407211110.52528936
2,10,11,16, 0,15, 0.00,60.00,Tuesday
135,412634239.96841943
3420,412634239.96841943
2,10,11,16, 0,16, 0.00,60.00,Tuesday
135,412875659.8841845
3420,412875659.8841845
2,10,11,16, 0,17, 0.00,60.00,Tuesday
135,407782544.3329285
3420,407782544.3329285
2,10,11,16, 0,18, 0.00,60.00,Tuesday
135,275307463.7846163
3420,275307463.7846163
2,10,11,16, 0,19, 0.00,60.00,Tuesday
135,228477241.10177448
3420,228477241.10177448
2,10,11,16, 0,20, 0.00,60.00,Tuesday
135,205729729.03458723
3420,205729729.03458726
2,10,11,16, 0,21, 0.00,60.00,Tuesday
135,181888833.82967812
3420,181888833.82967812
2,10,11,16, 0,22, 0.00,60.00,Tuesday
135,172315915.12400863
3420,172315915.12400863
2,10,11,16, 0,23, 0.00,60.00,Tuesday
135,145665177.9492423
3420,145665177.94924232
2,10,11,16, 0,24, 0.00,60.00,Tuesday
135,136612973.2394542
3420,136612973.2394542
2,11,11,17, 0, 1, 0.00,60.00,Wednesday
135,102465020.29638147
3420,102465020.29638147
2,11,11,17, 0, 2, 0.00,60.00,Wednesday
135,120922579.13771352
3420,120922579.13771352
2,11,11,17, 0, 3, 0.00,60.00,Wednesday
135,111990673.39080983
3420,111990673.39080983
2,11,11,17, 0, 4, 0.00,60.00,Wednesday
135,99611854.71227932
3420,99611854.71227932
2,11,11,17, 0, 5, 0.00,60.00,Wednesday
135,122944417.35249758
3420,122944417.35249758
2,11,11,17, 0, 6, 0.00,60.00,Wednesday
135,121574151.34884313
3420,121574151.34884313
2,11,11,17, 0, 7, 0.00,60.00,Wednesday
135,120308636.5916841
3420,120308636.5916841
2,11,11,17, 0, 8, 0.00,60.00,Wednesday
135,152534901.11901098
3420,152534901.11901098
2,11,11,17, 0, 9, 0.00,60.00,Wednesday
135,334295791.72375464
3420,334295791.72375464
2,11,11,17, 0,10, 0.00,60.00,Wednesday
135,387123286.09547836
3420,387123286.0954784
2,11,11,17, 0,11, 0.00,60.00,Wednesday
135,406725640.3019566
3420,406725640.30195665
2,11,11,17, 0,12, 0.00,60.00,Wednesday
135,413146290.1292251
3420,413146290.1292251
2,11,11,17, 0,13, 0.00,60.00,Wednesday
135,390059644.33632094
3420,390059644.336321
2,11,11,17, 0,14, 0.00,60.00,Wednesday
135,428103021.9002343
3420,428103021.9002343
2,11,11,17, 0,15, 0.00,60.00,Wednesday
135,428381056.48232216
3420,428381056.4823223
2,11,11,17, 0,16, 0.00,60.00,Wednesday
135,426274923.952762
3420,426274923.952762
2,11,11,17, 0,17, 0.00,60.00,Wednesday
135,430938463.43649167
3420,430938463.4364916
2,11,11,17, 0,18, 0.00,60.00,Wednesday
135,346873626.2413207
3420,346873626.2413207
2,11,11,17, 0,19, 0.00,60.00,Wednesday
135,298240167.9007101
3420,298240167.90071017
2,11,11,17, 0,20, 0.00,60.00,Wednesday
135,242121155.12060386
3420,242121155.12060386
2,11,11,17, 0,21, 0.00,60.00,Wednesday
135,202432115.16677564
3420,202432115.1667757
2,11,11,17, 0,22, 0.00,60.00,Wednesday
135,184240050.63393807
3420,184240050.63393807
2,11,11,17, 0,23, 0.00,60.00,Wednesday
135,151705753.03229293
3420,151705753.03229293
2,11,11,17, 0,24, 0.00,60.00,Wednesday
135,130359653.39637811
3420,130359653.39637811
2,12,11,18, 0, 1, 0.00,60.00,Thursday
135,97375150.68911907
3420,97375150.68911907
2,12,11,18, 0, 2, 0.00,60.00,Thursday
135,135429934.8246724
3420,135429934.8246724
2,12,11,18, 0, 3, 0.00,60.00,Thursday
135,113676957.74578783
3420,113676957.74578784
2,12,11,18, 0, 4, 0.00,60.00,Thursday
135,97208978.73634225
3420,97208978.73634228
2,12,11,18, 0, 5, 0.00,60.00,Thursday
135,123269639.84187458
3420,123269639.84187457
2,12,11,18, 0, 6, 0.00,60.00,Thursday
135,120965979.42988402
3420,120965979.42988402
2,12,11,18, 0, 7, 0.00,60.00,Thursday
135,120939192.09951028
3420,120939192.09951028
2,12,11,18, 0, 8, 0.00,60.00,Thursday
135,151062129.33960894
3420,151062129.33960897
2,12,11,18, 0, 9, 0.00,60.00,Thursday
135,336544827.67423975
3420,336544827.67423975
2,12,11,18, 0,10, 0.00,60.00,Thursday
135,368971061.6217271
3420,368971061.6217271
2,12,11,18, 0,11, 0.00,60.00,Thursday
135,397707180.727765
3420,397707180.7277651
2,12,11,18, 0,12, 0.00,60.00,Thursday
135,413609861.21703386
3420,413609861.21703386
2,12,11,18, 0,13, 0.00,60.00,Thursday
135,393743255.34169513
3420,393743255.3416952
2,12,11,18, 0,14, 0.00,60.00,Thursday
135,423576633.28723925
3420,423576633.2872393
2,12,11,18, 0,15, 0.00,60.00,Thursday
135,429873058.8512203
3420,429873058.85122037
2,12,11,18, 0,16, 0.00,60.00,Thursday
135,433549440.8316159
3420,433549440.8316159
2,12,11,18, 0,17, 0.00,60.00,Thursday
135,435972816.8466506
3420,435972816.8466506
2,12,11,18, 0,18, 0.00,60.00,Thursday
135,355296955.27031887
3420,355296955.27031887
2,12,11,18, 0,19, 0.00,60.00,Thursday
135,335742727.1824755
3420,335742727.18247545
2,12,11,18, 0,20, 0.00,60.00,Thursday
135,288356888.9508153
3420,288356888.9508154
2,12,11,18, 0,21, 0.00,60.00,Thursday
135,229877211.6032703
3420,229877211.6032703
2,12,11,18, 0,22, 0.00,60.00,Thursday
135,201303749.7258438
3420,201303749.72584385
2,12,11,18, 0,23, 0.00,60.00,Thursday
135,157635459.08197424
3420,157635459.08197427
2,12,11,18, 0,24, 0.00,60.00,Thursday
135,149122406.28240383
3420,149122406.28240383
2,13,11,19, 0, 1, 0.00,60.00,Friday
135,103365917.03960305
3420,103365917.03960307
2,13,11,19, 0, 2, 0.00,60.00,Friday
135,128551639.20517868
3420,128551639.20517868
2,13,11,19, 0, 3, 0.00,60.00,Friday
135,114481026.48429558
3420,114481026.48429556
2,13,11,19, 0, 4, 0.00,60.00,Friday
135,99377786.76510891
3420,99377786.76510891
2,13,11,19, 0, 5, 0.00,60.00,Friday
135,135607757.88381633
3420,135607757.88381633
2,13,11,19, 0, 6, 0.00,60.00,Friday
135,112780827.23251817
3420,112780827.23251817
2,13,11,19, 0, 7, 0.00,60.00,Friday
135,128580749.59627602
3420,128580749.59627602
2,13,11,19, 0, 8, 0.00,60.00,Friday
135,153098831.4306744
3420,153098831.4306744
2,13,11,19, 0, 9, 0.00,60.00,Friday
135,335703871.81562036
3420,335703871.8156204
2,13,11,19, 0,10, 0.00,60.00,Friday
135,362807455.4121502
3420,362807455.41215026
2,13,11,19, 0,11, 0.00,60.00,Friday
135,388970863.9995135
3420,388970863.9995135
2,13,11,19, 0,12, 0.00,60.00,Friday
135,406098745.6907934
3420,406098745.6907934
2,13,11,19, 0,13, 0.00,60.00,Friday
135,383790609.5017453
3420,383790609.5017452
2,13,11,19, 0,14, 0.00,60.00,Friday
135,420484000.65817785
3420,420484000.65817785
2,13,11,19, 0,15, 0.00,60.00,Friday
135,425275498.82373667
3420,425275498.82373667
2,13,11,19, 0,16, 0.00,60.00,Friday
135,427634585.5641755
3420,427634585.5641755
2,13,11,19, 0,17, 0.00,60.00,Friday
135,427555663.6631703
3420,427555663.66317034
2,13,11,19, 0,18, 0.00,60.00,Friday
135,340649947.79732597
3420,340649947.797326
2,13,11,19, 0,19, 0.00,60.00,Friday
135,309227667.5731526
3420,309227667.57315266
2,13,11,19, 0,20, 0.00,60.00,Friday
135,258116871.0925274
3420,258116871.0925274
2,13,11,19, 0,21, 0.00,60.00,Friday
135,210815122.10422832
3420,210815122.10422832
2,13,11,19, 0,22, 0.00,60.00,Friday
135,189678892.3580302
3420,189678892.3580302
2,13,11,19, 0,23, 0.00,60.00,Friday
135,157021895.10258782
3420,157021895.10258782
2,13,11,19, 0,24, 0.00,60.00,Friday
135,147888602.30665442
3420,147888602.30665445
2,14,11,20, 0, 1, 0.00,60.00,Saturday
135,88706732.79284932
3420,88706732.79284932
2,14,11,20, 0, 2, 0.00,60.00,Saturday
135,113424350.77894735
3420,113424350.77894735
2,14,11,20, 0, 3, 0.00,60.00,Saturday
135,101651366.37703507
3420,101651366.37703507
2,14,11,20, 0, 4, 0.00,60.00,Saturday
135,88404679.41114654
3420,88404679.41114654
2,14,11,20, 0, 5, 0.00,60.00,Saturday
135,116921898.00468914
3420,116921898.00468913
2,14,11,20, 0, 6, 0.00,60.00,Saturday
135,108950314.39881636
3420,108950314.39881635
2,14,11,20, 0, 7, 0.00,60.00,Saturday
135,131012971.33306962
3420,131012971.33306962
2,14,11,20, 0, 8, 0.00,60.00,Saturday
135,142519235.37357968
3420,142519235.37357968
2,14,11,20, 0, 9, 0.00,60.00,Saturday
135,197707347.39143547
3420,197707347.39143553
2,14,11,20, 0,10, 0.00,60.00,Saturday
135,223204216.4758506
3420,223204216.4758506
2,14,11,20, 0,11, 0.00,60.00,Saturday
135,242618927.97902018
3420,242618927.97902018
2,14,11,20, 0,12, 0.00,60.00,Saturday
135,261252754.16654602
3420,261252754.16654605
2,14,11,20, 0,13, 0.00,60.00,Saturday
135,230113927.6662501
3420,230113927.66625017
2,14,11,20, 0,14, 0.00,60.00,Saturday
135,229400238.45106435
3420,229400238.45106435
2,14,11,20, 0,15, 0.00,60.00,Saturday
135,247220179.25066233
3420,247220179.2506623
2,14,11,20, 0,16, 0.00,60.00,Saturday
135,251614500.50219685
3420,251614500.50219685
2,14,11,20, 0,17, 0.00,60.00,Saturday
135,255369227.25635844
3420,255369227.25635844
2,14,11,20, 0,18, 0.00,60.00,Saturday
135,259732357.66448075
3420,259732357.66448075
2,14,11,20, 0,19, 0.00,60.00,Saturday
135,223724702.69351485
3420,223724702.69351482
2,14,11,20, 0,20, 0.00,60.00,Saturday
135,197158758.8163141
3420,197158758.8163141
2,14,11,20, 0,21, 0.00,60.00,Saturday
135,126534324.27660947
3420,126534324.27660947
2,14,11,20, 0,22, 0.00,60.00,Saturday
135,149310758.3119415
3420,149310758.3119415
2,14,11,20, 0,23, 0.00,60.00,Saturday
135,137909120.8905999
3420,137909120.8905999
2,14,11,20, 0,24, 0.00,60.00,Saturday
135,105678841.5479817
3420,105678841.5479817
2,15,11,21, 0, 1, 0.00,60.00,Sunday
135,129221287.65903762
3420,129221287.65903762
2,15,11,21, 0, 2, 0.00,60.00,Sunday
135,105690275.74141394
3420,105690275.74141392
2,15,11,21, 0, 3, 0.00,60.00,Sunday
135,87601822.06260844
3420,87601822.06260844
2,15,11,21, 0, 4, 0.00,60.00,Sunday
135,121393659.85765442
3420,121393659.85765445
2,15,11,21, 0, 5, 0.00,60.00,Sunday
135,109693763.38996375
3420,109693763.38996375
2,15,11,21, 0, 6, 0.00,60.00,Sunday
135,90248060.34035935
3420,90248060.34035935
2,15,11,21, 0, 7, 0.00,60.00,Sunday
135,110306072.07670175
3420,110306072.07670175
2,15,11,21, 0, 8, 0.00,60.00,Sunday
135,113385415.39973086
3420,113385415.39973086
2,15,11,21, 0, 9, 0.00,60.00,Sunday
135,103068247.88162196
3420,103068247.88162197
2,15,11,21, 0,10, 0.00,60.00,Sunday
135,146309179.4316203
3420,146309179.4316203
2,15,11,21, 0,11, 0.00,60.00,Sunday
135,163650915.2004267
3420,163650915.2004267
2,15,11,21, 0,12, 0.00,60.00,Sunday
135,132867343.53379485
3420,132867343.53379485
2,15,11,21, 0,13, 0.00,60.00,Sunday
135,183157612.41430277
3420,183157612.41430277
2,15,11,21, 0,14, 0.00,60.00,Sunday
135,191882181.67393416
3420,191882181.6739342
2,15,11,21, 0,15, 0.00,60.00,Sunday
135,147940595.97505206
3420,147940595.97505206
2,15,11,21, 0,16, 0.00,60.00,Sunday
135,204771965.7578671
3420,204771965.75786716
2,15,11,21, 0,17, 0.00,60.00,Sunday
135,211224533.6084398
3420,211224533.6084398
2,15,11,21, 0,18, 0.00,60.00,Sunday
135,157072935.3423844
3420,157072935.3423844
2,15,11,21, 0,19, 0.00,60.00,Sunday