Program Version,EnergyPlus, Version 23.1.0-87ed9199d4, YMD=2026.02.17 23:33
1,5,Environment Title[],Latitude[deg],Longitude[deg],Time Zone[],Elevation[m]
2,8,Day of Simulation[],Month[],Day of Month[],DST Indicator[1=yes 0=no],Hour[],StartMinute[],EndMinute[],DayType
3,5,Cumulative Day of Simulation[],Month[],Day of Month[],DST Indicator[1=yes 0=no],DayType  ! When Daily Meters Requested
4,2,Cumulative Days of Simulation[],Month[]  ! When Monthly Meters Requested
5,1,Cumulative Days of Simulation[] ! When Run Period Meters Requested
6,1,Calendar Year of Simulation[] ! When Annual Meters Requested
135,1,Electricity:Facility [J] !Hourly
3420,1,ElectricityNet:Facility [J] !Hourly
End of Data Dictionary
1,RUNPERIOD 1,  -2.16, -79.88,  -5.00,   5.80
2,1, 9, 5, 1, 1, 0.00,60.00,Sunday
135,104410500.56276521
3420,104410500.56276524
2,1, 9, 5, 1, 2, 0.00,60.00,Sunday
135,103961551.51588467
3420,103961551.51588467
2,1, 9, 5, 1, 3, 0.00,60.00,Sunday
135,87089890.83356962
3420,87089890.83356963
2,1, 9, 5, 1, 4, 0.00,60.00,Sunday
135,106684871.27361938
3420,106684871.27361938
2,1, 9, 5, 1, 5, 0.00,60.00,Sunday
135,105076514.11878657
3420,105076514.11878659
2,1, 9, 5, 1, 6, 0.00,60.00,Sunday
135,107105858.78671505
3420,107105858.78671503
2,1, 9, 5, 1, 7, 0.00,60.00,Sunday
135,112549360.98794676
3420,112549360.98794678
2,1, 9, 5, 1, 8, 0.00,60.00,Sunday
135,101753956.52691816
3420,101753956.52691817
2,1, 9, 5, 1, 9, 0.00,60.00,Sunday
135,89550861.78026694
3420,89550861.78026696
2,1, 9, 5, 1,10, 0.00,60.00,Sunday
135,124404566.32101221
3420,124404566.32101221
2,1, 9, 5, 1,11, 0.00,60.00,Sunday
135,137930876.44646442
3420,137930876.44646442
2,1, 9, 5, 1,12, 0.00,60.00,Sunday
135,120481493.17069483
3420,120481493.17069486
2,1, 9, 5, 1,13, 0.00,60.00,Sunday
135,166615996.57290268
3420,166615996.57290268
2,1, 9, 5, 1,14, 0.00,60.00,Sunday
135,172804339.14471632
3420,172804339.14471635
2,1, 9, 5, 1,15, 0.00,60.00,Sunday
135,133950377.28532897
3420,133950377.28532897
2,1, 9, 5, 1,16, 0.00,60.00,Sunday
135,183424690.91323474
3420,183424690.91323474
2,1, 9, 5, 1,17, 0.00,60.00,Sunday
135,193452387.28906947
3420,193452387.28906947
2,1, 9, 5, 1,18, 0.00,60.00,Sunday
135,133590708.49104661
3420,133590708.49104661
2,1, 9, 5, 1,19, 0.00,60.00,Sunday
135,167185519.5584848
3420,167185519.5584848
2,1, 9, 5, 1,20, 0.00,60.00,Sunday
135,153192875.0806521
3420,153192875.08065206
2,1, 9, 5, 1,21, 0.00,60.00,Sunday
135,104708397.93389344
3420,104708397.93389346
2,1, 9, 5, 1,22, 0.00,60.00,Sunday
135,127195691.86462432
3420,127195691.86462432
2,1, 9, 5, 1,23, 0.00,60.00,Sunday
135,116011478.17756234
3420,116011478.17756236
2,1, 9, 5, 1,24, 0.00,60.00,Sunday
135,90179769.41966914
3420,90179769.41966914
2,2, 9, 6, 1, 1, 0.00,60.00,Holiday
135,110091016.65665236
3420,110091016.65665236
2,2, 9, 6, 1, 2, 0.00,60.00,Holiday
135,100337264.58430517
3420,100337264.58430517
2,2, 9, 6, 1, 3, 0.00,60.00,Holiday
135,89867098.81620398
3420,89867098.81620398
2,2, 9, 6, 1, 4, 0.00,60.00,Holiday
135,112973747.97383152
3420,112973747.97383152
2,2, 9, 6, 1, 5, 0.00,60.00,Holiday
135,104571916.5253235
3420,104571916.52532348
2,2, 9, 6, 1, 6, 0.00,60.00,Holiday
135,106930545.34497064
3420,106930545.34497063
2,2, 9, 6, 1, 7, 0.00,60.00,Holiday
135,114667146.77126685
3420,114667146.77126685
2,2, 9, 6, 1, 8, 0.00,60.00,Holiday
135,106601587.36825325
3420,106601587.36825325
2,2, 9, 6, 1, 9, 0.00,60.00,Holiday
135,90422932.8680723
3420,90422932.86807232
2,2, 9, 6, 1,10, 0.00,60.00,Holiday
135,128245229.71637864
3420,128245229.71637867
2,2, 9, 6, 1,11, 0.00,60.00,Holiday
135,133940260.27128401
3420,133940260.27128403
2,2, 9, 6, 1,12, 0.00,60.00,Holiday
135,116247338.75422692
3420,116247338.75422694
2,2, 9, 6, 1,13, 0.00,60.00,Holiday
135,163885406.5356021
3420,163885406.53560212
2,2, 9, 6, 1,14, 0.00,60.00,Holiday
135,172165348.754534
3420,172165348.75453398
2,2, 9, 6, 1,15, 0.00,60.00,Holiday
135,134698996.70527285
3420,134698996.70527288
2,2, 9, 6, 1,16, 0.00,60.00,Holiday
135,179889403.77346605
3420,179889403.77346605
2,2, 9, 6, 1,17, 0.00,60.00,Holiday
135,182522306.99477467
3420,182522306.9947747
2,2, 9, 6, 1,18, 0.00,60.00,Holiday
135,134537329.56303513
3420,134537329.5630351
2,2, 9, 6, 1,19, 0.00,60.00,Holiday
135,176157987.6646077
3420,176157987.6646077
2,2, 9, 6, 1,20, 0.00,60.00,Holiday
135,153557132.19660416
3420,153557132.19660413
2,2, 9, 6, 1,21, 0.00,60.00,Holiday
135,104854813.99026938
3420,104854813.99026941
2,2, 9, 6, 1,22, 0.00,60.00,Holiday
135,126756844.19290784
3420,126756844.19290784
2,2, 9, 6, 1,23, 0.00,60.00,Holiday
135,112224859.51564518
3420,112224859.51564518
2,2, 9, 6, 1,24, 0.00,60.00,Holiday
135,101590179.76708674
3420,101590179.76708674
2,3, 9, 7, 1, 1, 0.00,60.00,Tuesday
135,125278633.05475259
3420,125278633.05475262
2,3, 9, 7, 1, 2, 0.00,60.00,Tuesday
135,119379765.37536842
3420,119379765.37536842
2,3, 9, 7, 1, 3, 0.00,60.00,Tuesday
135,97247604.67659682
3420,97247604.67659682
2,3, 9, 7, 1, 4, 0.00,60.00,Tuesday
135,122701534.29678524
3420,122701534.2967852
2,3, 9, 7, 1, 5, 0.00,60.00,Tuesday
135,118585018.1588355
3420,118585018.15883547
2,3, 9, 7, 1, 6, 0.00,60.00,Tuesday
135,142836207.98845142
3420,142836207.98845142
2,3, 9, 7, 1, 7, 0.00,60.00,Tuesday
135,153628245.77611548
3420,153628245.7761155
2,3, 9, 7, 1, 8, 0.00,60.00,Tuesday
135,301424615.15805113
3420,301424615.15805113
2,3, 9, 7, 1, 9, 0.00,60.00,Tuesday
135,319130783.54211164
3420,319130783.5421117
2,3, 9, 7, 1,10, 0.00,60.00,Tuesday
135,347014981.0843607
3420,347014981.0843607
2,3, 9, 7, 1,11, 0.00,60.00,Tuesday
135,357122306.0526146
3420,357122306.0526146
2,3, 9, 7, 1,12, 0.00,60.00,Tuesday
135,340966827.4890333
3420,340966827.4890333
2,3, 9, 7, 1,13, 0.00,60.00,Tuesday
135,391549758.9553924
3420,391549758.9553924
2,3, 9, 7, 1,14, 0.00,60.00,Tuesday
135,401031361.87818515
3420,401031361.87818515
2,3, 9, 7, 1,15, 0.00,60.00,Tuesday
135,408162610.37410897
3420,408162610.37410903
2,3, 9, 7, 1,16, 0.00,60.00,Tuesday
135,406783720.615005
3420,406783720.615005
2,3, 9, 7, 1,17, 0.00,60.00,Tuesday
135,279575404.24218714
3420,279575404.24218714
2,3, 9, 7, 1,18, 0.00,60.00,Tuesday
135,226155925.9626053
3420,226155925.9626053
2,3, 9, 7, 1,19, 0.00,60.00,Tuesday
135,204903107.03631872
3420,204903107.03631875
2,3, 9, 7, 1,20, 0.00,60.00,Tuesday
135,178307903.48260486
3420,178307903.4826049
2,3, 9, 7, 1,21, 0.00,60.00,Tuesday
135,167709270.5311166
3420,167709270.5311166
2,3, 9, 7, 1,22, 0.00,60.00,Tuesday
135,143726149.19771323
3420,143726149.19771323
2,3, 9, 7, 1,23, 0.00,60.00,Tuesday
135,130516354.98743753
3420,130516354.98743753
2,3, 9, 7, 1,24, 0.00,60.00,Tuesday
135,101780031.46032831
3420,101780031.46032831
2,4, 9, 8, 1, 1, 0.00,60.00,Wednesday
135,121857810.0711403
3420,121857810.0711403
2,4, 9, 8, 1, 2, 0.00,60.00,Wednesday
135,116235776.56403795
3420,116235776.56403795
2,4, 9, 8, 1, 3, 0.00,60.00,Wednesday
135,99787722.78939295
3420,99787722.78939293
2,4, 9, 8, 1, 4, 0.00,60.00,Wednesday
135,134299067.42955202
3420,134299067.429552
2,4, 9, 8, 1, 5, 0.00,60.00,Wednesday
135,124567921.96220261
3420,124567921.96220258
2,4, 9, 8, 1, 6, 0.00,60.00,Wednesday
135,140867728.2187958
3420,140867728.2187958
2,4, 9, 8, 1, 7, 0.00,60.00,Wednesday
135,150249531.99137884
3420,150249531.99137884
2,4, 9, 8, 1, 8, 0.00,60.00,Wednesday
135,293918656.2391322
3420,293918656.2391323
2,4, 9, 8, 1, 9, 0.00,60.00,Wednesday
135,313430168.1990401
3420,313430168.1990402
2,4, 9, 8, 1,10, 0.00,60.00,Wednesday
135,333741517.7958978
3420,333741517.7958978
2,4, 9, 8, 1,11, 0.00,60.00,Wednesday
135,362167573.87278897
3420,362167573.872789
2,4, 9, 8, 1,12, 0.00,60.00,Wednesday
135,351332889.79333097
3420,351332889.793331
2,4, 9, 8, 1,13, 0.00,60.00,Wednesday
135,400121463.01641124
3420,400121463.01641124
2,4, 9, 8, 1,14, 0.00,60.00,Wednesday
135,411792487.1954274
3420,411792487.1954274
2,4, 9, 8, 1,15, 0.00,60.00,Wednesday
135,420773365.4680643
3420,420773365.4680643
2,4, 9, 8, 1,16, 0.00,60.00,Wednesday
135,430017276.32088524
3420,430017276.32088524
2,4, 9, 8, 1,17, 0.00,60.00,Wednesday
135,330090336.26052964
3420,330090336.26052964
2,4, 9, 8, 1,18, 0.00,60.00,Wednesday
135,299605967.51971805
3420,299605967.51971805
2,4, 9, 8, 1,19, 0.00,60.00,Wednesday
135,278265959.6323345
3420,278265959.6323345
2,4, 9, 8, 1,20, 0.00,60.00,Wednesday
135,228657956.79523772
3420,228657956.79523778
2,4, 9, 8, 1,21, 0.00,60.00,Wednesday
135,207656244.1112637
3420,207656244.1112637
2,4, 9, 8, 1,22, 0.00,60.00,Wednesday
135,160997086.89176857
3420,160997086.89176857
2,4, 9, 8, 1,23, 0.00,60.00,Wednesday
135,144576984.3236079
3420,144576984.3236079
2,4, 9, 8, 1,24, 0.00,60.00,Wednesday
135,104070300.3924062
3420,104070300.39240621
2,5, 9, 9, 1, 1, 0.00,60.00,Thursday
135,126297025.29302597
3420,126297025.29302594
2,5, 9, 9, 1, 2, 0.00,60.00,Thursday
135,120383357.33412136
3420,120383357.33412135
2,5, 9, 9, 1, 3, 0.00,60.00,Thursday
135,106593104.9237965
3420,106593104.92379647
2,5, 9, 9, 1, 4, 0.00,60.00,Thursday
135,138097410.33710623
3420,138097410.3371062
2,5, 9, 9, 1, 5, 0.00,60.00,Thursday
135,126804196.23735315
3420,126804196.23735315
2,5, 9, 9, 1, 6, 0.00,60.00,Thursday
135,144634470.20456147
3420,144634470.20456147
2,5, 9, 9, 1, 7, 0.00,60.00,Thursday
135,151700571.7055127
3420,151700571.7055127
2,5, 9, 9, 1, 8, 0.00,60.00,Thursday
135,308330871.79575837
3420,308330871.7957584
2,5, 9, 9, 1, 9, 0.00,60.00,Thursday
135,323672126.8359691
3420,323672126.83596915
2,5, 9, 9, 1,10, 0.00,60.00,Thursday
135,362887744.53611195
3420,362887744.53611195
2,5, 9, 9, 1,11, 0.00,60.00,Thursday
135,384676597.2481669
3420,384676597.2481669
2,5, 9, 9, 1,12, 0.00,60.00,Thursday
135,357338515.4816592
3420,357338515.48165923
2,5, 9, 9, 1,13, 0.00,60.00,Thursday
135,406052766.0529248
3420,406052766.0529249
2,5, 9, 9, 1,14, 0.00,60.00,Thursday
135,413715484.0968366
3420,413715484.0968367
2,5, 9, 9, 1,15, 0.00,60.00,Thursday
135,428592798.09252447
3420,428592798.0925244
2,5, 9, 9, 1,16, 0.00,60.00,Thursday
135,431238246.83084595
3420,431238246.83084595
2,5, 9, 9, 1,17, 0.00,60.00,Thursday
135,339867726.31511
3420,339867726.31510997
2,5, 9, 9, 1,18, 0.00,60.00,Thursday
135,315050241.26694316
3420,315050241.26694316
2,5, 9, 9, 1,19, 0.00,60.00,Thursday
135,311222982.2916305
3420,311222982.2916305
2,5, 9, 9, 1,20, 0.00,60.00,Thursday
135,252133174.4501711
3420,252133174.45017105
2,5, 9, 9, 1,21, 0.00,60.00,Thursday
135,211617636.63146532
3420,211617636.63146535
2,5, 9, 9, 1,22, 0.00,60.00,Thursday
135,158254685.24239093
3420,158254685.24239096
2,5, 9, 9, 1,23, 0.00,60.00,Thursday
135,133037670.9795017
3420,133037670.97950168
2,5, 9, 9, 1,24, 0.00,60.00,Thursday
135,99679202.48712
3420,99679202.48712
2,6, 9,10, 1, 1, 0.00,60.00,Friday
135,127973003.71666162
3420,127973003.7166616
2,6, 9,10, 1, 2, 0.00,60.00,Friday
135,118812019.62513211
3420,118812019.62513214
2,6, 9,10, 1, 3, 0.00,60.00,Friday
135,104620688.9311373
3420,104620688.9311373
2,6, 9,10, 1, 4, 0.00,60.00,Friday
135,121734301.10852942
3420,121734301.10852942
2,6, 9,10, 1, 5, 0.00,60.00,Friday
135,115558886.03121266
3420,115558886.03121264
2,6, 9,10, 1, 6, 0.00,60.00,Friday
135,139170889.0713993
3420,139170889.0713993
2,6, 9,10, 1, 7, 0.00,60.00,Friday
135,149621012.7845977
3420,149621012.7845977
2,6, 9,10, 1, 8, 0.00,60.00,Friday
135,300955828.7778791
3420,300955828.7778791
2,6, 9,10, 1, 9, 0.00,60.00,Friday
135,315051780.8672402
3420,315051780.8672402
2,6, 9,10, 1,10, 0.00,60.00,Friday
135,349686055.52749
3420,349686055.52749
2,6, 9,10, 1,11, 0.00,60.00,Friday
135,379505453.17378104
3420,379505453.17378104
2,6, 9,10, 1,12, 0.00,60.00,Friday
135,362046249.0170468
3420,362046249.0170468
2,6, 9,10, 1,13, 0.00,60.00,Friday
135,398486671.2136431
3420,398486671.21364313
2,6, 9,10, 1,14, 0.00,60.00,Friday
135,420325450.286448
3420,420325450.286448
2,6, 9,10, 1,15, 0.00,60.00,Friday
135,426226942.67178625
3420,426226942.6717863
2,6, 9,10, 1,16, 0.00,60.00,Friday
135,429842674.65221846
3420,429842674.65221846
2,6, 9,10, 1,17, 0.00,60.00,Friday
135,342171520.4959361
3420,342171520.4959361
2,6, 9,10, 1,18, 0.00,60.00,Friday
135,317162571.4481752
3420,317162571.4481752
2,6, 9,10, 1,19, 0.00,60.00,Friday
135,317502190.9384422
3420,317502190.9384422
2,6, 9,10, 1,20, 0.00,60.00,Friday
135,260521904.20580876
3420,260521904.20580876
2,6, 9,10, 1,21, 0.00,60.00,Friday
135,214350793.29970282
3420,214350793.29970285
2,6, 9,10, 1,22, 0.00,60.00,Friday
135,156861122.6512406
3420,156861122.6512406
2,6, 9,10, 1,23, 0.00,60.00,Friday
135,144536878.7844387
3420,144536878.7844387
2,6, 9,10, 1,24, 0.00,60.00,Friday
135,88771670.49908149
3420,88771670.49908148
2,7, 9,11, 1, 1, 0.00,60.00,Saturday
135,111943394.92206462
3420,111943394.9220646
2,7, 9,11, 1, 2, 0.00,60.00,Saturday
135,100560481.29285502
3420,100560481.29285502
2,7, 9,11, 1, 3, 0.00,60.00,Saturday
135,85996603.02808724
3420,85996603.02808724
2,7, 9,11, 1, 4, 0.00,60.00,Saturday
135,107548858.8258038
3420,107548858.82580379
2,7, 9,11, 1, 5, 0.00,60.00,Saturday
135,102887243.0305869
3420,102887243.0305869
2,7, 9,11, 1, 6, 0.00,60.00,Saturday
135,139983744.63640338
3420,139983744.6364034
2,7, 9,11, 1, 7, 0.00,60.00,Saturday
135,124365117.46557944
3420,124365117.46557944
2,7, 9,11, 1, 8, 0.00,60.00,Saturday
135,162653394.17338046
3420,162653394.1733805
2,7, 9,11, 1, 9, 0.00,60.00,Saturday
135,176003364.11676273
3420,176003364.1167628
2,7, 9,11, 1,10, 0.00,60.00,Saturday
135,204391734.0010835
3420,204391734.0010835
2,7, 9,11, 1,11, 0.00,60.00,Saturday
135,230256509.78519052
3420,230256509.78519052
2,7, 9,11, 1,12, 0.00,60.00,Saturday
135,207670596.86226392
3420,207670596.86226392
2,7, 9,11, 1,13, 0.00,60.00,Saturday
135,215870914.19454783
3420,215870914.19454783
2,7, 9,11, 1,14, 0.00,60.00,Saturday
135,222490180.8765084
3420,222490180.8765084
2,7, 9,11, 1,15, 0.00,60.00,Saturday
135,229001953.04591674
3420,229001953.04591674
2,7, 9,11, 1,16, 0.00,60.00,Saturday
135,234631337.54770306
3420,234631337.5477031
2,7, 9,11, 1,17, 0.00,60.00,Saturday
135,223230597.89902115
3420,223230597.89902115
2,7, 9,11, 1,18, 0.00,60.00,Saturday
135,187760808.3914312
3420,187760808.3914312
2,7, 9,11, 1,19, 0.00,60.00,Saturday
135,178932294.89916128
3420,178932294.89916128
2,7, 9,11, 1,20, 0.00,60.00,Saturday
135,113593280.54967748
3420,113593280.54967748
2,7, 9,11, 1,21, 0.00,60.00,Saturday
135,136563748.93577483
3420,136563748.93577486
2,7, 9,11, 1,22, 0.00,60.00,Saturday
135,119262052.68130139
3420,119262052.68130137
2,7, 9,11, 1,23, 0.00,60.00,Saturday
135,92664718.48695916
3420,92664718.48695916
2,7, 9,11, 1,24, 0.00,60.00,Saturday
135,120087488.66105431
3420,120087488.6610543
2,8, 9,12, 1, 1, 0.00,60.00,Sunday
135,104892818.69711407
3420,104892818.69711407
2,8, 9,12, 1, 2, 0.00,60.00,Sunday
135,87543110.64088984
3420,87543110.64088984
2,8, 9,12, 1, 3, 0.00,60.00,Sunday
135,115957645.6757851
3420,115957645.6757851
2,8, 9,12, 1, 4, 0.00,60.00,Sunday
135,110651316.62863621
3420,110651316.6286362
2,8, 9,12, 1, 5, 0.00,60.00,Sunday
135,93558457.59608547
3420,93558457.59608546
2,8, 9,12, 1, 6, 0.00,60.00,Sunday
135,137896723.5221036
3420,137896723.52210358
2,8, 9,12, 1, 7, 0.00,60.00,Sunday
135,112286981.74180685
3420,112286981.74180683
2,8, 9,12, 1, 8, 0.00,60.00,Sunday
135,92064939.66565417
3420,92064939.66565418
2,8, 9,12, 1, 9, 0.00,60.00,Sunday
135,114978139.56672725
3420,114978139.56672725
2,8, 9,12, 1,10, 0.00,60.00,Sunday
135,109956336.5398445
3420,109956336.53984448
2,8, 9,12, 1,11, 0.00,60.00,Sunday
135,100499841.001405
3420,100499841.00140502
2,8, 9,12, 1,12, 0.00,60.00,Sunday
135,140433541.328962
3420,140433541.32896203
2,8, 9,12, 1,13, 0.00,60.00,Sunday
135,147998525.33627498
3420,147998525.33627498
2,8, 9,12, 1,14, 0.00,60.00,Sunday
135,122896561.44741085
3420,122896561.44741088
2,8, 9,12, 1,15, 0.00,60.00,Sunday
135,168328425.47072935
3420,168328425.47072935
2,8, 9,12, 1,16, 0.00,60.00,Sunday
135,170244967.59058395
3420,170244967.59058398
2,8, 9,12, 1,17, 0.00,60.00,Sunday
135,128957862.65102327
3420,128957862.65102328
2,8, 9,12, 1,18, 0.00,60.00,Sunday
135,166685647.79815018
3420,166685647.79815018
2,8, 9,12, 1,19, 0.00,60.00,Sunday
135,163904550.81817952
3420,163904550.8181795
2,8, 9,12, 1,20, 0.00,60.00,Sunday
135,112080197.91831096
3420,112080197.91831093
2,8, 9,12, 1,21, 0.00,60.00,Sunday
135,128300703.9383767
3420,128300703.93837667
2,8, 9,12, 1,22, 0.00,60.00,Sunday
135,108793882.7176403
3420,108793882.71764027
2,8, 9,12, 1,23, 0.00,60.00,Sunday
135,90134474.43209723
3420,90134474.43209724
2,8, 9,12, 1,24, 0.00,60.00,Sunday
135,117964634.29253325
3420,117964634.29253325
2,9, 9,13, 1, 1, 0.00,60.00,Monday
135,114267559.48855522
3420,114267559.48855524
2,9, 9,13, 1, 2, 0.00,60.00,Monday
135,103486020.31618279
3420,103486020.31618276
2,9, 9,13, 1, 3, 0.00,60.00,Monday
135,133319975.03611556
3420,133319975.03611556
2,9, 9,13, 1, 4, 0.00,60.00,Monday
135,122834472.78789468
3420,122834472.7878947
2,9, 9,13, 1, 5, 0.00,60.00,Monday
135,97210684.96264696
3420,97210684.96264693
2,9, 9,13, 1, 6, 0.00,60.00,Monday
135,145858126.97001153
3420,145858126.97001156
2,9, 9,13, 1, 7, 0.00,60.00,Monday
135,149850136.17763683
3420,149850136.17763686
2,9, 9,13, 1, 8, 0.00,60.00,Monday
135,288963062.9545679
3420,288963062.9545679
2,9, 9,13, 1, 9, 0.00,60.00,Monday
135,310142615.1286969
3420,310142615.12869704
2,9, 9,13, 1,10, 0.00,60.00,Monday
135,336718129.1386278
3420,336718129.1386278
2,9, 9,13, 1,11, 0.00,60.00,Monday
135,360336142.63022876
3420,360336142.63022876
2,9, 9,13, 1,12, 0.00,60.00,Monday
135,349209312.6273422
3420,349209312.6273422
2,9, 9,13, 1,13, 0.00,60.00,Monday
135,396134263.76223207
3420,396134263.762232
2,9, 9,13, 1,14, 0.00,60.00,Monday
135,401519647.6630494
3420,401519647.6630494
2,9, 9,13, 1,15, 0.00,60.00,Monday
135,414134573.2032325
3420,414134573.2032326
2,9, 9,13, 1,16, 0.00,60.00,Monday
135,418672623.8844412
3420,418672623.88444114
2,9, 9,13, 1,17, 0.00,60.00,Monday
135,301068763.2391433
3420,301068763.2391433
2,9, 9,13, 1,18, 0.00,60.00,Monday
135,272348454.60044414
3420,272348454.60044414
2,9, 9,13, 1,19, 0.00,60.00,Monday
135,248552159.85245144
3420,248552159.85245144
2,9, 9,13, 1,20, 0.00,60.00,Monday
135,196499092.0552559
3420,196499092.05525592
2,9, 9,13, 1,21, 0.00,60.00,Monday
135,172187269.63575065
3420,172187269.63575065
2,9, 9,13, 1,22, 0.00,60.00,Monday
135,139179830.70557505
3420,139179830.70557508
2,9, 9,13, 1,23, 0.00,60.00,Monday
135,122515718.49314445
3420,122515718.49314445
2,9, 9,13, 1,24, 0.00,60.00,Monday
135,95780188.99750465
3420,95780188.99750465
2,10, 9,14, 1, 1, 0.00,60.00,Tuesday
135,117389146.26655203
3420,117389146.266552
2,10, 9,14, 1, 2, 0.00,60.00,Tuesday
135,113829989.89617293
3420,113829989.89617291
2,10, 9,14, 1, 3, 0.00,60.00,Tuesday
135,103242556.19135419
3420,103242556.19135417
2,10, 9,14, 1, 4, 0.00,60.00,Tuesday
135,132545121.36652446
3420,132545121.36652443
2,10, 9,14, 1, 5, 0.00,60.00,Tuesday
135,123387190.65255238
3420,123387190.65255237
2,10, 9,14, 1, 6, 0.00,60.00,Tuesday
135,141611730.22990316
3420,141611730.2299032
2,10, 9,14, 1, 7, 0.00,60.00,Tuesday
135,152360040.46253836
3420,152360040.46253836
2,10, 9,14, 1, 8, 0.00,60.00,Tuesday
135,301070374.6597383
3420,301070374.6597382
2,10, 9,14, 1, 9, 0.00,60.00,Tuesday
135,324387329.7762619
3420,324387329.7762619
2,10, 9,14, 1,10, 0.00,60.00,Tuesday
135,343337949.4346577
3420,343337949.4346578
2,10, 9,14, 1,11, 0.00,60.00,Tuesday
135,384953087.78780264
3420,384953087.7878027
2,10, 9,14, 1,12, 0.00,60.00,Tuesday
135,360183119.12232476
3420,360183119.1223248
2,10, 9,14, 1,13, 0.00,60.00,Tuesday
135,402855406.5314001
3420,402855406.5314002
2,10, 9,14, 1,14, 0.00,60.00,Tuesday
135,416113915.6873031
3420,416113915.6873031
2,10, 9,14, 1,15, 0.00,60.00,Tuesday
135,424091043.16110474
3420,424091043.16110474
2,10, 9,14, 1,16, 0.00,60.00,Tuesday
135,426146075.0509372
3420,426146075.0509372
2,10, 9,14, 1,17, 0.00,60.00,Tuesday
135,325833058.24288356
3420,325833058.24288356
2,10, 9,14, 1,18, 0.00,60.00,Tuesday
135,282388183.4952386
3420,282388183.49523866
2,10, 9,14, 1,19, 0.00,60.00,Tuesday
135,271911693.17035246
3420,271911693.17035246
2,10, 9,14, 1,20, 0.00,60.00,Tuesday
135,227493996.51715335
3420,227493996.51715335
2,10, 9,14, 1,21, 0.00,60.00,Tuesday
135,208597188.5171476
3420,208597188.51714766
2,10, 9,14, 1,22, 0.00,60.00,Tuesday
135,157345101.61516434
3420,157345101.61516437
2,10, 9,14, 1,23, 0.00,60.00,Tuesday
135,141156702.9833807
3420,141156702.98338068
2,10, 9,14, 1,24, 0.00,60.00,Tuesday
135,100395464.64944792
3420,100395464.64944793
2,11, 9,15, 1, 1, 0.00,60.00,Wednesday
135,124363036.62159947
3420,124363036.62159947
2,11, 9,15, 1, 2, 0.00,60.00,Wednesday
135,118607849.987355
3420,118607849.987355
2,11, 9,15, 1, 3, 0.00,60.00,Wednesday
135,103065605.45323998
3420,103065605.45323998
2,11, 9,15, 1, 4, 0.00,60.00,Wednesday
135,122120966.14184797
3420,122120966.14184795
2,11, 9,15, 1, 5, 0.00,60.00,Wednesday
135,115479981.64701459
3420,115479981.64701459
2,11, 9,15, 1, 6, 0.00,60.00,Wednesday
135,140923605.99923438
3420,140923605.99923438
2,11, 9,15, 1, 7, 0.00,60.00,Wednesday
135,156363693.97150594
3420,156363693.97150594
2,11, 9,15, 1, 8, 0.00,60.00,Wednesday
135,302680443.1592234
3420,302680443.15922344
2,11, 9,15, 1, 9, 0.00,60.00,Wednesday
135,323886367.7268753
3420,323886367.7268753
2,11, 9,15, 1,10, 0.00,60.00,Wednesday
135,352748139.2111411
3420,352748139.2111411
2,11, 9,15, 1,11, 0.00,60.00,Wednesday
135,384256486.4846597
3420,384256486.4846596
2,11, 9,15, 1,12, 0.00,60.00,Wednesday
135,367303254.521039
3420,367303254.52103907
2,11, 9,15, 1,13, 0.00,60.00,Wednesday
135,402634169.050663
3420,402634169.05066305
2,11, 9,15, 1,14, 0.00,60.00,Wednesday
135,425157393.87129444
3420,425157393.8712945
2,11, 9,15, 1,15, 0.00,60.00,Wednesday
135,430915286.47628045
3420,430915286.47628045
2,11, 9,15, 1,16, 0.00,60.00,Wednesday
135,433214837.2911808
3420,433214837.2911808
2,11, 9,15, 1,17, 0.00,60.00,Wednesday
135,341639289.9809649
3420,341639289.9809649
2,11, 9,15, 1,18, 0.00,60.00,Wednesday
135,313389078.0996064
3420,313389078.0996064
2,11, 9,15, 1,19, 0.00,60.00,Wednesday
135,316755884.02577406
3420,316755884.025774
2,11, 9,15, 1,20, 0.00,60.00,Wednesday
135,254683384.06297106
3420,254683384.06297106
2,11, 9,15, 1,21, 0.00,60.00,Wednesday
135,208581844.75891858
3420,208581844.7589186
2,11, 9,15, 1,22, 0.00,60.00,Wednesday
135,155247044.23627317
3420,155247044.23627317
2,11, 9,15, 1,23, 0.00,60.00,Wednesday
135,140641092.5487585
3420,140641092.5487585
2,11, 9,15, 1,24, 0.00,60.00,Wednesday
135,100174832.12095875
3420,100174832.12095875
2,12, 9,16, 1, 1, 0.00,60.00,Thursday
135,121575378.01425385
3420,121575378.01425385
2,12, 9,16, 1, 2, 0.00,60.00,Thursday
135,112168294.85933614
3420,112168294.85933614
2,12, 9,16, 1, 3, 0.00,60.00,Thursday
135,97807911.95202768
3420,97807911.95202768
2,12, 9,16, 1, 4, 0.00,60.00,Thursday
135,119991641.97702794
3420,119991641.97702794
2,12, 9,16, 1, 5, 0.00,60.00,Thursday
135,111300369.7819916
3420,111300369.7819916
2,12, 9,16, 1, 6, 0.00,60.00,Thursday
135,137662831.93049568
3420,137662831.9304957
2,12, 9,16, 1, 7, 0.00,60.00,Thursday
135,152751453.72801453
3420,152751453.72801453
2,12, 9,16, 1, 8, 0.00,60.00,Thursday
135,297998178.186308
3420,297998178.18630797
2,12, 9,16, 1, 9, 0.00,60.00,Thursday
135,321021489.2236198
3420,321021489.2236198
2,12, 9,16, 1,10, 0.00,60.00,Thursday
135,351609917.8419012
3420,351609917.8419012
2,12, 9,16, 1,11, 0.00,60.00,Thursday
135,397286727.00316644
3420,397286727.00316644
2,12, 9,16, 1,12, 0.00,60.00,Thursday
135,391848282.6630248
3420,391848282.6630249
2,12, 9,16, 1,13, 0.00,60.00,Thursday
135,427151529.6891457
3420,427151529.6891457
2,12, 9,16, 1,14, 0.00,60.00,Thursday
135,431668141.65772086
3420,431668141.65772086
2,12, 9,16, 1,15, 0.00,60.00,Thursday
135,435362139.9600194
3420,435362139.96001947
2,12, 9,16, 1,16, 0.00,60.00,Thursday
135,436826998.339231
3420,436826998.339231
2,12, 9,16, 1,17, 0.00,60.00,Thursday
135,351780497.67157894
3420,351780497.6715789
2,12, 9,16, 1,18, 0.00,60.00,Thursday
135,318557986.6611914
3420,318557986.6611914
2,12, 9,16, 1,19, 0.00,60.00,Thursday
135,320414403.8803709
3420,320414403.8803709
2,12, 9,16, 1,20, 0.00,60.00,Thursday
135,247378182.21044305
3420,247378182.21044302
2,12, 9,16, 1,21, 0.00,60.00,Thursday
135,193202720.98192716
3420,193202720.98192716
2,12, 9,16, 1,22, 0.00,60.00,Thursday
135,145405940.31680134
3420,145405940.31680134
2,12, 9,16, 1,23, 0.00,60.00,Thursday
135,135892695.41858628
3420,135892695.4185863
2,12, 9,16, 1,24, 0.00,60.00,Thursday
135,98135928.79296231
3420,98135928.79296233
2,13, 9,17, 1, 1, 0.00,60.00,Friday
135,123574052.29776742
3420,123574052.29776742
2,13, 9,17, 1, 2, 0.00,60.00,Friday
135,111614771.78974934
3420,111614771.78974934
2,13, 9,17, 1, 3, 0.00,60.00,Friday
135,95251831.85241926
3420,95251831.85241926
2,13, 9,17, 1, 4, 0.00,60.00,Friday
135,118090394.2184721
3420,118090394.2184721
2,13, 9,17, 1, 5, 0.00,60.00,Friday
135,111966231.93905467
3420,111966231.93905467
2,13, 9,17, 1, 6, 0.00,60.00,Friday
135,137086985.54256922
3420,137086985.54256928
2,13, 9,17, 1, 7, 0.00,60.00,Friday
135,147830920.5221067
3420,147830920.5221067
2,13, 9,17, 1, 8, 0.00,60.00,Friday
135,300366481.5515834
3420,300366481.55158335
2,13, 9,17, 1, 9, 0.00,60.00,Friday
135,322825435.85779446
3420,322825435.8577945
2,13, 9,17, 1,10, 0.00,60.00,Friday
135,358477328.1032843
3420,358477328.1032843
2,13, 9,17, 1,11, 0.00,60.00,Friday
135,383513022.03901726
3420,383513022.03901726
2,13, 9,17, 1,12, 0.00,60.00,Friday
135,367041401.3389629
3420,367041401.33896303
2,13, 9,17, 1,13, 0.00,60.00,Friday
135,397451660.6372481
3420,397451660.63724816
2,13, 9,17, 1,14, 0.00,60.00,Friday
135,417404178.87987286
3420,417404178.8798729
2,13, 9,17, 1,15, 0.00,60.00,Friday
135,428352410.77671707
3420,428352410.7767171
2,13, 9,17, 1,16, 0.00,60.00,Friday
135,431141277.4617694
3420,431141277.4617694
2,13, 9,17, 1,17, 0.00,60.00,Friday
135,329270193.00602156
3420,329270193.0060215
2,13, 9,17, 1,18, 0.00,60.00,Friday
135,302453018.6827211
3420,302453018.682721
2,13, 9,17, 1,19, 0.00,60.00,Friday
135,293324096.02345145
3420,293324096.0234515
2,13, 9,17, 1,20, 0.00,60.00,Friday
135,236418524.6574483
3420,236418524.6574483
2,13, 9,17, 1,21, 0.00,60.00,Friday
135,206199010.36647895
3420,206199010.36647895
2,13, 9,17, 1,22, 0.00,60.00,Friday
135,155415991.42039397
3420,155415991.420394
2,13, 9,17, 1,23, 0.00,60.00,Friday
135,143443965.56961003
3420,143443965.56961006
2,13, 9,17, 1,24, 0.00,60.00,Friday
135,91018839.63935862
3420,91018839.63935862
2,14, 9,18, 1, 1, 0.00,60.00,Saturday
135,112860823.982093
3420,112860823.98209302
2,14, 9,18, 1, 2, 0.00,60.00,Saturday
135,112445710.79653686
3420,112445710.79653686
2,14, 9,18, 1, 3, 0.00,60.00,Saturday
135,86562702.26650389
3420,86562702.26650387
2,14, 9,18, 1, 4, 0.00,60.00,Saturday
135,109221043.94478428
3420,109221043.94478425
2,14, 9,18, 1, 5, 0.00,60.00,Saturday
135,103087489.05243838
3420,103087489.05243835
2,14, 9,18, 1, 6, 0.00,60.00,Saturday
135,138318382.81292415
3420,138318382.81292415
2,14, 9,18, 1, 7, 0.00,60.00,Saturday
135,117372912.1363542
3420,117372912.13635418
2,14, 9,18, 1, 8, 0.00,60.00,Saturday
135,155715992.2053799
3420,155715992.20537993
2,14, 9,18, 1, 9, 0.00,60.00,Saturday
135,171164883.26923805
3420,171164883.2692381
2,14, 9,18, 1,10, 0.00,60.00,Saturday
135,194617792.4745868
3420,194617792.47458684
2,14, 9,18, 1,11, 0.00,60.00,Saturday
135,213985543.01480997
3420,213985543.01481
2,14, 9,18, 1,12, 0.00,60.00,Saturday
135,190509670.51864666
3420,190509670.51864672
2,14, 9,18, 1,13, 0.00,60.00,Saturday
135,207571716.00136462
3420,207571716.0013646
2,14, 9,18, 1,14, 0.00,60.00,Saturday
135,219517231.14784873
3420,219517231.14784873
2,14, 9,18, 1,15, 0.00,60.00,Saturday
135,251698827.93003237
3420,251698827.93003237
2,14, 9,18, 1,16, 0.00,60.00,Saturday
135,272379944.52031016
3420,272379944.52031016
2,14, 9,18, 1,17, 0.00,60.00,Saturday
135,259206406.68242198
3420,259206406.68242198
2,14, 9,18, 1,18, 0.00,60.00,Saturday
135,201777236.05389178
3420,201777236.05389178
2,14, 9,18, 1,19, 0.00,60.00,Saturday
135,193549644.2688957
3420,193549644.2688957
2,14, 9,18, 1,20, 0.00,60.00,Saturday
135,120984822.502971
3420,120984822.502971
2,14, 9,18, 1,21, 0.00,60.00,Saturday
135,136497401.53584898
3420,136497401.53584895
2,14, 9,18, 1,22, 0.00,60.00,Saturday
135,120926818.1592325
3420,120926818.1592325
2,14, 9,18, 1,23, 0.00,60.00,Saturday
135,106230799.6143118
3420,106230799.6143118
2,14, 9,18, 1,24, 0.00,60.00,Saturday
135,130192082.35997146
3420,130192082.35997146
2,15, 9,19, 1, 1, 0.00,60.00,Sunday
135,107374080.63312817
3420,107374080.63312815
2,15, 9,19, 1, 2, 0.00,60.00,Sunday
135,87924867.66412504
3420,87924867.66412506
2,15, 9,19, 1, 3, 0.00,60.00,Sunday
135,113817565.4659498
3420,113817565.4659498
2,15, 9,19, 1, 4, 0.00,60.00,Sunday
135,106274900.16266993
3420,106274900.16266993
2,15, 9,19, 1, 5, 0.00,60.00,Sunday
135,90092052.02103649
3420,90092052.02103648
2,15, 9,19, 1, 6, 0.00,60.00,Sunday
135,130385668.81666315
3420,130385668.81666315
2,15, 9,19, 1, 7, 0.00,60.00,Sunday
135,107001930.83528528
3420,107001930.83528528
2,15, 9,19, 1, 8, 0.00,60.00,Sunday
135,86624026.93561834
3420,86624026.93561833
2,15, 9,19, 1, 9, 0.00,60.00,Sunday
135,121112885.90479761
3420,121112885.90479763
2,15, 9,19, 1,10, 0.00,60.00,Sunday
135,122474275.43490934
3420,122474275.43490934
2,15, 9,19, 1,11, 0.00,60.00,Sunday
135,106942526.53335509
3420,106942526.53335509
2,15, 9,19, 1,12, 0.00,60.00,Sunday
135,143462239.42206734
3420,143462239.42206734
2,15, 9,19, 1,13, 0.00,60.00,Sunday
135,155176128.8557384
3420,155176128.85573837
2,15, 9,19, 1,14, 0.00,60.00,Sunday
135,123592486.52947196
3420,123592486.52947196
2,15, 9,19, 1,15, 0.00,60.00,Sunday
135,168577342.12811527
3420,168577342.12811527
2,15, 9,19, 1,16, 0.00,60.00,Sunday
135,184527535.06537822
3420,184527535.06537825
2,15, 9,19, 1,17, 0.00,60.00,Sunday
135,133206878.43110582
3420,133206878.43110584
2,15, 9,19, 1,18, 0.00,60.00,Sunday
135,158129480.81581482
3420,158129480.81581482