Program Version,EnergyPlus, Version 23.1.0-87ed9199d4, YMD=2026.02.01 13:14
1,5,Environment Title[],Latitude[deg],Longitude[deg],Time Zone[],Elevation[m]
2,8,Day of Simulation[],Month[],Day of Month[],DST Indicator[1=yes 0=no],Hour[],StartMinute[],EndMinute[],DayType
3,5,Cumulative Day of Simulation[],Month[],Day of Month[],DST Indicator[1=yes 0=no],DayType  ! When Daily Meters Requested
4,2,Cumulative Days of Simulation[],Month[]  ! When Monthly Meters Requested
5,1,Cumulative Days of Simulation[] ! When Run Period Meters Requested
6,1,Calendar Year of Simulation[] ! When Annual Meters Requested
135,1,Electricity:Facility [J] !Hourly
3420,1,ElectricityNet:Facility [J] !Hourly
End of Data Dictionary
1,RUNPERIOD 1,  -2.16, -79.88,  -5.00,   5.80
2,1,11,10, 0, 1, 0.00,60.00,Wednesday
135,148989689.93334052
3420,148989689.93334052
2,1,11,10, 0, 2, 0.00,60.00,Wednesday
135,58339223.49717496
3420,58339223.497174956
2,1,11,10, 0, 3, 0.00,60.00,Wednesday
135,143717811.45084846
3420,143717811.45084846
2,1,11,10, 0, 4, 0.00,60.00,Wednesday
135,58339004.11373618
3420,58339004.113736175
2,1,11,10, 0, 5, 0.00,60.00,Wednesday
135,136778247.95390287
3420,136778247.95390287
2,1,11,10, 0, 6, 0.00,60.00,Wednesday
135,58339004.11373618
3420,58339004.113736175
2,1,11,10, 0, 7, 0.00,60.00,Wednesday
135,145627050.28371325
3420,145627050.28371328
2,1,11,10, 0, 8, 0.00,60.00,Wednesday
135,196786448.6324736
3420,196786448.6324736
2,1,11,10, 0, 9, 0.00,60.00,Wednesday
135,378474166.55224305
3420,378474166.55224305
2,1,11,10, 0,10, 0.00,60.00,Wednesday
135,398046474.5998127
3420,398046474.59981275
2,1,11,10, 0,11, 0.00,60.00,Wednesday
135,403373763.2414646
3420,403373763.2414646
2,1,11,10, 0,12, 0.00,60.00,Wednesday
135,412342098.4966927
3420,412342098.49669266
2,1,11,10, 0,13, 0.00,60.00,Wednesday
135,402062593.22096366
3420,402062593.2209636
2,1,11,10, 0,14, 0.00,60.00,Wednesday
135,421045148.27025473
3420,421045148.27025473
2,1,11,10, 0,15, 0.00,60.00,Wednesday
135,424597687.4028685
3420,424597687.4028685
2,1,11,10, 0,16, 0.00,60.00,Wednesday
135,427959523.3728988
3420,427959523.3728988
2,1,11,10, 0,17, 0.00,60.00,Wednesday
135,425866805.4894647
3420,425866805.4894647
2,1,11,10, 0,18, 0.00,60.00,Wednesday
135,341864222.2288365
3420,341864222.2288364
2,1,11,10, 0,19, 0.00,60.00,Wednesday
135,324585800.0176608
3420,324585800.0176609
2,1,11,10, 0,20, 0.00,60.00,Wednesday
135,302485187.3531116
3420,302485187.3531116
2,1,11,10, 0,21, 0.00,60.00,Wednesday
135,241949570.23190305
3420,241949570.23190305
2,1,11,10, 0,22, 0.00,60.00,Wednesday
135,228828043.03224623
3420,228828043.03224623
2,1,11,10, 0,23, 0.00,60.00,Wednesday
135,192933447.03014958
3420,192933447.03014964
2,1,11,10, 0,24, 0.00,60.00,Wednesday
135,72563947.72384587
3420,72563947.72384587
2,2,11,11, 0, 1, 0.00,60.00,Holiday
135,140506117.20432806
3420,140506117.20432806
2,2,11,11, 0, 2, 0.00,60.00,Holiday
135,47088539.76632162
3420,47088539.766321614
2,2,11,11, 0, 3, 0.00,60.00,Holiday
135,139142801.76731977
3420,139142801.76731977
2,2,11,11, 0, 4, 0.00,60.00,Holiday
135,47088379.70955594
3420,47088379.70955593
2,2,11,11, 0, 5, 0.00,60.00,Holiday
135,135834449.9204788
3420,135834449.92047882
2,2,11,11, 0, 6, 0.00,60.00,Holiday
135,47088379.70955594
3420,47088379.70955593
2,2,11,11, 0, 7, 0.00,60.00,Holiday
135,136939344.13294432
3420,136939344.1329443
2,2,11,11, 0, 8, 0.00,60.00,Holiday
135,45742689.79364602
3420,45742689.79364603
2,2,11,11, 0, 9, 0.00,60.00,Holiday
135,169310763.0223925
3420,169310763.0223925
2,2,11,11, 0,10, 0.00,60.00,Holiday
135,45638118.19243601
3420,45638118.192436
2,2,11,11, 0,11, 0.00,60.00,Holiday
135,204708855.14039648
3420,204708855.14039648
2,2,11,11, 0,12, 0.00,60.00,Holiday
135,45638118.19243602
3420,45638118.19243602
2,2,11,11, 0,13, 0.00,60.00,Holiday
135,221600865.64006394
3420,221600865.6400639
2,2,11,11, 0,14, 0.00,60.00,Holiday
135,45638118.19243601
3420,45638118.19243601
2,2,11,11, 0,15, 0.00,60.00,Holiday
135,238724600.4923102
3420,238724600.49231023
2,2,11,11, 0,16, 0.00,60.00,Holiday
135,45638118.19243601
3420,45638118.192436
2,2,11,11, 0,17, 0.00,60.00,Holiday
135,240502870.0483542
3420,240502870.0483542
2,2,11,11, 0,18, 0.00,60.00,Holiday
135,45687388.83309893
3420,45687388.83309893
2,2,11,11, 0,19, 0.00,60.00,Holiday
135,218312249.37512273
3420,218312249.37512276
2,2,11,11, 0,20, 0.00,60.00,Holiday
135,49852043.76632162
3420,49852043.76632161
2,2,11,11, 0,21, 0.00,60.00,Holiday
135,170681437.60922754
3420,170681437.60922754
2,2,11,11, 0,22, 0.00,60.00,Holiday
135,49851883.70955594
3420,49851883.709555924
2,2,11,11, 0,23, 0.00,60.00,Holiday
135,140481234.78605983
3420,140481234.78605983
2,2,11,11, 0,24, 0.00,60.00,Holiday
135,49851883.70955594
3420,49851883.709555924
2,3,11,12, 0, 1, 0.00,60.00,Friday
135,148403249.56607604
3420,148403249.56607607
2,3,11,12, 0, 2, 0.00,60.00,Friday
135,58339004.11373618
3420,58339004.113736175
2,3,11,12, 0, 3, 0.00,60.00,Friday
135,141798542.61256018
3420,141798542.61256018
2,3,11,12, 0, 4, 0.00,60.00,Friday
135,58339004.11373618
3420,58339004.113736175
2,3,11,12, 0, 5, 0.00,60.00,Friday
135,138661642.45986733
3420,138661642.4598673
2,3,11,12, 0, 6, 0.00,60.00,Friday
135,58339004.11373618
3420,58339004.113736175
2,3,11,12, 0, 7, 0.00,60.00,Friday
135,145682978.7643773
3420,145682978.76437727
2,3,11,12, 0, 8, 0.00,60.00,Friday
135,197066670.43143445
3420,197066670.43143436
2,3,11,12, 0, 9, 0.00,60.00,Friday
135,377455495.7595461
3420,377455495.75954604
2,3,11,12, 0,10, 0.00,60.00,Friday
135,393207482.20912623
3420,393207482.2091263
2,3,11,12, 0,11, 0.00,60.00,Friday
135,404041891.63457674
3420,404041891.6345768
2,3,11,12, 0,12, 0.00,60.00,Friday
135,408048344.71734816
3420,408048344.7173482
2,3,11,12, 0,13, 0.00,60.00,Friday
135,404775410.52064985
3420,404775410.5206498
2,3,11,12, 0,14, 0.00,60.00,Friday
135,422689079.21114963
3420,422689079.21114975
2,3,11,12, 0,15, 0.00,60.00,Friday
135,427248744.8335718
3420,427248744.8335718
2,3,11,12, 0,16, 0.00,60.00,Friday
135,427910016.5258785
3420,427910016.5258784
2,3,11,12, 0,17, 0.00,60.00,Friday
135,427972823.9388811
3420,427972823.93888116
2,3,11,12, 0,18, 0.00,60.00,Friday
135,340851177.24078387
3420,340851177.24078393
2,3,11,12, 0,19, 0.00,60.00,Friday
135,314888735.72475415
3420,314888735.7247543
2,3,11,12, 0,20, 0.00,60.00,Friday
135,287755123.98877364
3420,287755123.98877364
2,3,11,12, 0,21, 0.00,60.00,Friday
135,252794970.86812687
3420,252794970.86812687
2,3,11,12, 0,22, 0.00,60.00,Friday
135,214571235.90216833
3420,214571235.90216833
2,3,11,12, 0,23, 0.00,60.00,Friday
135,189650930.6746738
3420,189650930.67467383
2,3,11,12, 0,24, 0.00,60.00,Friday
135,72563947.72384587
3420,72563947.72384587
2,4,11,13, 0, 1, 0.00,60.00,Saturday
135,128072820.24590258
3420,128072820.24590257
2,4,11,13, 0, 2, 0.00,60.00,Saturday
135,47088539.76632162
3420,47088539.766321614
2,4,11,13, 0, 3, 0.00,60.00,Saturday
135,132233516.05890688
3420,132233516.0589069
2,4,11,13, 0, 4, 0.00,60.00,Saturday
135,47088379.70955594
3420,47088379.70955593
2,4,11,13, 0, 5, 0.00,60.00,Saturday
135,131396789.02126196
3420,131396789.02126198
2,4,11,13, 0, 6, 0.00,60.00,Saturday
135,47088379.70955594
3420,47088379.70955593
2,4,11,13, 0, 7, 0.00,60.00,Saturday
135,145917070.0224259
3420,145917070.0224259
2,4,11,13, 0, 8, 0.00,60.00,Saturday
135,179945970.98755372
3420,179945970.98755372
2,4,11,13, 0, 9, 0.00,60.00,Saturday
135,226281131.56194183
3420,226281131.56194183
2,4,11,13, 0,10, 0.00,60.00,Saturday
135,243498595.37911814
3420,243498595.37911814
2,4,11,13, 0,11, 0.00,60.00,Saturday
135,259724714.55236018
3420,259724714.55236015
2,4,11,13, 0,12, 0.00,60.00,Saturday
135,277644330.7178198
3420,277644330.7178198
2,4,11,13, 0,13, 0.00,60.00,Saturday
135,243410636.6065909
3420,243410636.60659093
2,4,11,13, 0,14, 0.00,60.00,Saturday
135,252706780.22554344
3420,252706780.22554344
2,4,11,13, 0,15, 0.00,60.00,Saturday
135,264859911.46608347
3420,264859911.46608353
2,4,11,13, 0,16, 0.00,60.00,Saturday
135,268677231.4567463
3420,268677231.45674634
2,4,11,13, 0,17, 0.00,60.00,Saturday
135,261766252.42043954
3420,261766252.42043954
2,4,11,13, 0,18, 0.00,60.00,Saturday
135,259325111.77687532
3420,259325111.77687538
2,4,11,13, 0,19, 0.00,60.00,Saturday
135,243252049.17019084
3420,243252049.1701908
2,4,11,13, 0,20, 0.00,60.00,Saturday
135,50491404.88721671
3420,50491404.8872167
2,4,11,13, 0,21, 0.00,60.00,Saturday
135,149011968.77769268
3420,149011968.77769265
2,4,11,13, 0,22, 0.00,60.00,Saturday
135,49851883.70955594
3420,49851883.709555924
2,4,11,13, 0,23, 0.00,60.00,Saturday
135,137913538.21871224
3420,137913538.21871224
2,4,11,13, 0,24, 0.00,60.00,Saturday
135,49851883.70955594
3420,49851883.709555924
2,5,11,14, 0, 1, 0.00,60.00,Sunday
135,130067221.05743667
3420,130067221.05743667
2,5,11,14, 0, 2, 0.00,60.00,Sunday
135,47088379.70955594
3420,47088379.70955593
2,5,11,14, 0, 3, 0.00,60.00,Sunday
135,128308908.53843114
3420,128308908.53843114
2,5,11,14, 0, 4, 0.00,60.00,Sunday
135,47088379.70955594
3420,47088379.70955593
2,5,11,14, 0, 5, 0.00,60.00,Sunday
135,131951376.1104028
3420,131951376.11040281
2,5,11,14, 0, 6, 0.00,60.00,Sunday
135,47088379.70955594
3420,47088379.70955593
2,5,11,14, 0, 7, 0.00,60.00,Sunday
135,126058192.70492549
3420,126058192.70492545
2,5,11,14, 0, 8, 0.00,60.00,Sunday
135,45965055.10368323
3420,45965055.10368323
2,5,11,14, 0, 9, 0.00,60.00,Sunday
135,143168919.10144192
3420,143168919.10144192
2,5,11,14, 0,10, 0.00,60.00,Sunday
135,45673546.021903604
3420,45673546.0219036
2,5,11,14, 0,11, 0.00,60.00,Sunday
135,166578839.32996577
3420,166578839.32996577
2,5,11,14, 0,12, 0.00,60.00,Sunday
135,45638118.19243601
3420,45638118.19243601
2,5,11,14, 0,13, 0.00,60.00,Sunday
135,194320539.76325968
3420,194320539.76325965
2,5,11,14, 0,14, 0.00,60.00,Sunday
135,45638118.19243602
3420,45638118.19243602
2,5,11,14, 0,15, 0.00,60.00,Sunday
135,213120872.3954206
3420,213120872.39542064
2,5,11,14, 0,16, 0.00,60.00,Sunday
135,45638118.19243601
3420,45638118.19243602
2,5,11,14, 0,17, 0.00,60.00,Sunday
135,237256708.05968103
3420,237256708.05968103
2,5,11,14, 0,18, 0.00,60.00,Sunday
135,45733104.19318971
3420,45733104.19318972
2,5,11,14, 0,19, 0.00,60.00,Sunday
135,186719298.28772098
3420,186719298.287721
2,5,11,14, 0,20, 0.00,60.00,Sunday
135,49852043.76632162
3420,49852043.766321614
2,5,11,14, 0,21, 0.00,60.00,Sunday
135,143498724.48884895
3420,143498724.48884892
2,5,11,14, 0,22, 0.00,60.00,Sunday
135,49851883.70955594
3420,49851883.70955593
2,5,11,14, 0,23, 0.00,60.00,Sunday
135,134831169.84397683
3420,134831169.84397686
2,5,11,14, 0,24, 0.00,60.00,Sunday
135,49851883.70955594
3420,49851883.70955593
2,6,11,15, 0, 1, 0.00,60.00,Monday
135,135776256.48334524
3420,135776256.48334527
2,6,11,15, 0, 2, 0.00,60.00,Monday
135,58339004.11373618
3420,58339004.113736175
2,6,11,15, 0, 3, 0.00,60.00,Monday
135,137360343.1262113
3420,137360343.12621132
2,6,11,15, 0, 4, 0.00,60.00,Monday
135,58339004.11373618
3420,58339004.11373619
2,6,11,15, 0, 5, 0.00,60.00,Monday
135,129482623.62561156
3420,129482623.62561154
2,6,11,15, 0, 6, 0.00,60.00,Monday
135,58339004.11373618
3420,58339004.11373619
2,6,11,15, 0, 7, 0.00,60.00,Monday
135,142376295.76011717
3420,142376295.7601172
2,6,11,15, 0, 8, 0.00,60.00,Monday
135,180928631.50410926
3420,180928631.50410923
2,6,11,15, 0, 9, 0.00,60.00,Monday
135,362142357.67171687
3420,362142357.67171687
2,6,11,15, 0,10, 0.00,60.00,Monday
135,384948735.7367854
3420,384948735.73678553
2,6,11,15, 0,11, 0.00,60.00,Monday
135,403449667.0382231
3420,403449667.03822315
2,6,11,15, 0,12, 0.00,60.00,Monday
135,414191937.39283645
3420,414191937.3928365
2,6,11,15, 0,13, 0.00,60.00,Monday
135,395575910.38567084
3420,395575910.3856709
2,6,11,15, 0,14, 0.00,60.00,Monday
135,421019559.08282214
3420,421019559.08282214
2,6,11,15, 0,15, 0.00,60.00,Monday
135,427675237.6075178
3420,427675237.6075178
2,6,11,15, 0,16, 0.00,60.00,Monday
135,428110740.9344676
3420,428110740.9344677
2,6,11,15, 0,17, 0.00,60.00,Monday
135,429871545.4659185
3420,429871545.46591854
2,6,11,15, 0,18, 0.00,60.00,Monday
135,342712945.21917
3420,342712945.21917
2,6,11,15, 0,19, 0.00,60.00,Monday
135,310897920.51613694
3420,310897920.51613694
2,6,11,15, 0,20, 0.00,60.00,Monday
135,270912901.09377956
3420,270912901.0937796
2,6,11,15, 0,21, 0.00,60.00,Monday
135,246457097.8718867
3420,246457097.87188667
2,6,11,15, 0,22, 0.00,60.00,Monday
135,225558577.75563645
3420,225558577.75563645
2,6,11,15, 0,23, 0.00,60.00,Monday
135,191254664.7659234
3420,191254664.76592338
2,6,11,15, 0,24, 0.00,60.00,Monday
135,72563947.72384587
3420,72563947.72384587
2,7,11,16, 0, 1, 0.00,60.00,Tuesday
135,144803330.53445125
3420,144803330.53445125
2,7,11,16, 0, 2, 0.00,60.00,Tuesday
135,58339223.49717496
3420,58339223.497174956
2,7,11,16, 0, 3, 0.00,60.00,Tuesday
135,144260071.28904158
3420,144260071.28904158
2,7,11,16, 0, 4, 0.00,60.00,Tuesday
135,58339004.11373618
3420,58339004.113736175
2,7,11,16, 0, 5, 0.00,60.00,Tuesday
135,143632236.9065895
3420,143632236.90658948
2,7,11,16, 0, 6, 0.00,60.00,Tuesday
135,58339004.11373618
3420,58339004.113736175
2,7,11,16, 0, 7, 0.00,60.00,Tuesday
135,145872145.82335204
3420,145872145.823352
2,7,11,16, 0, 8, 0.00,60.00,Tuesday
135,182355203.3677837
3420,182355203.36778373
2,7,11,16, 0, 9, 0.00,60.00,Tuesday
135,352328253.193362
3420,352328253.1933619
2,7,11,16, 0,10, 0.00,60.00,Tuesday
135,381939814.8046781
3420,381939814.8046781
2,7,11,16, 0,11, 0.00,60.00,Tuesday
135,391313802.2402483
3420,391313802.24024844
2,7,11,16, 0,12, 0.00,60.00,Tuesday
135,398131851.91543466
3420,398131851.91543466
2,7,11,16, 0,13, 0.00,60.00,Tuesday
135,364849237.2191233
3420,364849237.21912336
2,7,11,16, 0,14, 0.00,60.00,Tuesday
135,410369672.37351125
3420,410369672.3735113
2,7,11,16, 0,15, 0.00,60.00,Tuesday
135,410761981.61416036
3420,410761981.6141604
2,7,11,16, 0,16, 0.00,60.00,Tuesday
135,412534890.60666525
3420,412534890.60666525
2,7,11,16, 0,17, 0.00,60.00,Tuesday
135,404498372.15696234
3420,404498372.1569624
2,7,11,16, 0,18, 0.00,60.00,Tuesday
135,281075760.96639687
3420,281075760.9663969
2,7,11,16, 0,19, 0.00,60.00,Tuesday
135,231577408.22384605
3420,231577408.22384608
2,7,11,16, 0,20, 0.00,60.00,Tuesday
135,210206011.25504616
3420,210206011.2550462
2,7,11,16, 0,21, 0.00,60.00,Tuesday
135,188320998.44661364
3420,188320998.44661364
2,7,11,16, 0,22, 0.00,60.00,Tuesday
135,181694798.6947128
3420,181694798.69471282
2,7,11,16, 0,23, 0.00,60.00,Tuesday
135,156039080.08793283
3420,156039080.08793288
2,7,11,16, 0,24, 0.00,60.00,Tuesday
135,72563947.72384587
3420,72563947.72384587
2,8,11,17, 0, 1, 0.00,60.00,Wednesday
135,142708100.55496094
3420,142708100.55496094
2,8,11,17, 0, 2, 0.00,60.00,Wednesday
135,58339223.49717496
3420,58339223.49717496
2,8,11,17, 0, 3, 0.00,60.00,Wednesday
135,143806072.2697713
3420,143806072.2697713
2,8,11,17, 0, 4, 0.00,60.00,Wednesday
135,58339004.11373618
3420,58339004.11373618
2,8,11,17, 0, 5, 0.00,60.00,Wednesday
135,131002270.50579205
3420,131002270.50579208
2,8,11,17, 0, 6, 0.00,60.00,Wednesday
135,58339004.11373618
3420,58339004.11373618
2,8,11,17, 0, 7, 0.00,60.00,Wednesday
135,128148514.49706246
3420,128148514.49706244
2,8,11,17, 0, 8, 0.00,60.00,Wednesday
135,153674564.45071846
3420,153674564.4507185
2,8,11,17, 0, 9, 0.00,60.00,Wednesday
135,352086129.5139015
3420,352086129.51390153
2,8,11,17, 0,10, 0.00,60.00,Wednesday
135,402139029.5707875
3420,402139029.5707875
2,8,11,17, 0,11, 0.00,60.00,Wednesday
135,407477936.9081868
3420,407477936.9081868
2,8,11,17, 0,12, 0.00,60.00,Wednesday
135,416017102.68308973
3420,416017102.68308973
2,8,11,17, 0,13, 0.00,60.00,Wednesday
135,389734209.1650416
3420,389734209.1650417
2,8,11,17, 0,14, 0.00,60.00,Wednesday
135,425697531.3019231
3420,425697531.30192316
2,8,11,17, 0,15, 0.00,60.00,Wednesday
135,424903187.04422694
3420,424903187.044227
2,8,11,17, 0,16, 0.00,60.00,Wednesday
135,421903849.1820397
3420,421903849.1820398
2,8,11,17, 0,17, 0.00,60.00,Wednesday
135,430898953.4439127
3420,430898953.4439127
2,8,11,17, 0,18, 0.00,60.00,Wednesday
135,330743161.9021283
3420,330743161.90212834
2,8,11,17, 0,19, 0.00,60.00,Wednesday
135,287071699.2285039
3420,287071699.22850394
2,8,11,17, 0,20, 0.00,60.00,Wednesday
135,240976324.6614387
3420,240976324.66143867
2,8,11,17, 0,21, 0.00,60.00,Wednesday
135,209708063.05119833
3420,209708063.05119836
2,8,11,17, 0,22, 0.00,60.00,Wednesday
135,191235356.30985636
3420,191235356.30985636
2,8,11,17, 0,23, 0.00,60.00,Wednesday
135,165712372.3387643
3420,165712372.33876434
2,8,11,17, 0,24, 0.00,60.00,Wednesday
135,72563947.72384587
3420,72563947.72384587
2,9,11,18, 0, 1, 0.00,60.00,Thursday
135,144600738.20233798
3420,144600738.20233795
2,9,11,18, 0, 2, 0.00,60.00,Thursday
135,58339223.49717496
3420,58339223.49717496
2,9,11,18, 0, 3, 0.00,60.00,Thursday
135,136959623.3948604
3420,136959623.3948604
2,9,11,18, 0, 4, 0.00,60.00,Thursday
135,58339004.11373618
3420,58339004.11373618
2,9,11,18, 0, 5, 0.00,60.00,Thursday
135,132684799.483071
3420,132684799.48307106
2,9,11,18, 0, 6, 0.00,60.00,Thursday
135,58339004.11373618
3420,58339004.11373618
2,9,11,18, 0, 7, 0.00,60.00,Thursday
135,131832061.0586388
3420,131832061.0586388
2,9,11,18, 0, 8, 0.00,60.00,Thursday
135,150808398.09955207
3420,150808398.09955212
2,9,11,18, 0, 9, 0.00,60.00,Thursday
135,352443373.3256554
3420,352443373.32565546
2,9,11,18, 0,10, 0.00,60.00,Thursday
135,371939441.37396735
3420,371939441.37396735
2,9,11,18, 0,11, 0.00,60.00,Thursday
135,398167775.86938184
3420,398167775.86938184
2,9,11,18, 0,12, 0.00,60.00,Thursday
135,416389785.0225032
3420,416389785.02250314
2,9,11,18, 0,13, 0.00,60.00,Thursday
135,394235460.0490719
3420,394235460.0490719
2,9,11,18, 0,14, 0.00,60.00,Thursday
135,424591681.72651845
3420,424591681.7265185
2,9,11,18, 0,15, 0.00,60.00,Thursday
135,428024207.3966469
3420,428024207.3966471
2,9,11,18, 0,16, 0.00,60.00,Thursday
135,431688495.16117936
3420,431688495.1611793
2,9,11,18, 0,17, 0.00,60.00,Thursday
135,432546384.461943
3420,432546384.46194303
2,9,11,18, 0,18, 0.00,60.00,Thursday
135,352091742.4927194
3420,352091742.4927194
2,9,11,18, 0,19, 0.00,60.00,Thursday
135,330318536.5310382
3420,330318536.5310383
2,9,11,18, 0,20, 0.00,60.00,Thursday
135,275935099.41360015
3420,275935099.41360015
2,9,11,18, 0,21, 0.00,60.00,Thursday
135,230419464.60738724
3420,230419464.60738724
2,9,11,18, 0,22, 0.00,60.00,Thursday
135,210239615.1489949
3420,210239615.14899492
2,9,11,18, 0,23, 0.00,60.00,Thursday
135,177551051.51861972
3420,177551051.51861972
2,9,11,18, 0,24, 0.00,60.00,Thursday
135,72563947.72384587
3420,72563947.72384587
2,10,11,19, 0, 1, 0.00,60.00,Friday
135,143032238.43278095
3420,143032238.43278098
2,10,11,19, 0, 2, 0.00,60.00,Friday
135,58339223.49717496
3420,58339223.497174956
2,10,11,19, 0, 3, 0.00,60.00,Friday
135,146481352.91567448
3420,146481352.91567448
2,10,11,19, 0, 4, 0.00,60.00,Friday
135,58339004.11373618
3420,58339004.11373619
2,10,11,19, 0, 5, 0.00,60.00,Friday
135,140320382.00433835
3420,140320382.00433835
2,10,11,19, 0, 6, 0.00,60.00,Friday
135,58339004.11373618
3420,58339004.11373619
2,10,11,19, 0, 7, 0.00,60.00,Friday
135,137469346.1241836
3420,137469346.12418362
2,10,11,19, 0, 8, 0.00,60.00,Friday
135,151463620.574118
3420,151463620.57411805
2,10,11,19, 0, 9, 0.00,60.00,Friday
135,348651851.0573752
3420,348651851.05737525
2,10,11,19, 0,10, 0.00,60.00,Friday
135,368737526.86518174
3420,368737526.8651818
2,10,11,19, 0,11, 0.00,60.00,Friday
135,385986640.81707
3420,385986640.81707007
2,10,11,19, 0,12, 0.00,60.00,Friday
135,410632584.2208627
3420,410632584.22086275
2,10,11,19, 0,13, 0.00,60.00,Friday
135,390149522.90382534
3420,390149522.90382546
2,10,11,19, 0,14, 0.00,60.00,Friday
135,418186190.9851298
3420,418186190.98512983
2,10,11,19, 0,15, 0.00,60.00,Friday
135,424423317.8434094
3420,424423317.8434094
2,10,11,19, 0,16, 0.00,60.00,Friday
135,424550047.5438964
3420,424550047.54389644
2,10,11,19, 0,17, 0.00,60.00,Friday
135,424068196.32682383
3420,424068196.32682383
2,10,11,19, 0,18, 0.00,60.00,Friday
135,339237304.2700609
3420,339237304.2700609
2,10,11,19, 0,19, 0.00,60.00,Friday
135,296203947.8854746
3420,296203947.8854747
2,10,11,19, 0,20, 0.00,60.00,Friday
135,263238060.40204245
3420,263238060.40204245
2,10,11,19, 0,21, 0.00,60.00,Friday
135,204685470.13334128
3420,204685470.13334125
2,10,11,19, 0,22, 0.00,60.00,Friday
135,197039183.97517583
3420,197039183.97517583
2,10,11,19, 0,23, 0.00,60.00,Friday
135,174710314.3783669
3420,174710314.3783669
2,10,11,19, 0,24, 0.00,60.00,Friday
135,72563947.72384587
3420,72563947.72384587
2,11,11,20, 0, 1, 0.00,60.00,Saturday
135,132025983.03694052
3420,132025983.03694052
2,11,11,20, 0, 2, 0.00,60.00,Saturday
135,47088539.76632162
3420,47088539.76632162
2,11,11,20, 0, 3, 0.00,60.00,Saturday
135,134045084.52204257
3420,134045084.52204257
2,11,11,20, 0, 4, 0.00,60.00,Saturday
135,47088379.70955594
3420,47088379.70955595
2,11,11,20, 0, 5, 0.00,60.00,Saturday
135,128359387.74211787
3420,128359387.74211784
2,11,11,20, 0, 6, 0.00,60.00,Saturday
135,47088379.70955594
3420,47088379.70955595
2,11,11,20, 0, 7, 0.00,60.00,Saturday
135,135260327.00247023
3420,135260327.00247025
2,11,11,20, 0, 8, 0.00,60.00,Saturday
135,143703597.9038677
3420,143703597.90386766
2,11,11,20, 0, 9, 0.00,60.00,Saturday
135,205341996.51966718
3420,205341996.51966715
2,11,11,20, 0,10, 0.00,60.00,Saturday
135,234027933.02703676
3420,234027933.02703676
2,11,11,20, 0,11, 0.00,60.00,Saturday
135,247114093.33238333
3420,247114093.3323833
2,11,11,20, 0,12, 0.00,60.00,Saturday
135,262339559.17762125
3420,262339559.17762125
2,11,11,20, 0,13, 0.00,60.00,Saturday
135,230668990.67331848
3420,230668990.67331845
2,11,11,20, 0,14, 0.00,60.00,Saturday
135,229400395.83482236
3420,229400395.83482236
2,11,11,20, 0,15, 0.00,60.00,Saturday
135,249682305.4157731
3420,249682305.4157731
2,11,11,20, 0,16, 0.00,60.00,Saturday
135,250384785.7330994
3420,250384785.7330994
2,11,11,20, 0,17, 0.00,60.00,Saturday
135,252047966.01805407
3420,252047966.01805407
2,11,11,20, 0,18, 0.00,60.00,Saturday
135,262027013.6996581
3420,262027013.6996581
2,11,11,20, 0,19, 0.00,60.00,Saturday
135,273945900.3585007
3420,273945900.3585007
2,11,11,20, 0,20, 0.00,60.00,Saturday
135,50491404.88721671
3420,50491404.8872167
2,11,11,20, 0,21, 0.00,60.00,Saturday
135,172003677.10275176
3420,172003677.10275173
2,11,11,20, 0,22, 0.00,60.00,Saturday
135,49851883.70955594
3420,49851883.70955593
2,11,11,20, 0,23, 0.00,60.00,Saturday
135,162155136.9795689
3420,162155136.97956887
2,11,11,20, 0,24, 0.00,60.00,Saturday
135,49851883.70955594
3420,49851883.70955593
2,12,11,21, 0, 1, 0.00,60.00,Sunday
135,141676936.9314713
3420,141676936.9314713
2,12,11,21, 0, 2, 0.00,60.00,Sunday
135,47088379.70955594
3420,47088379.70955593
2,12,11,21, 0, 3, 0.00,60.00,Sunday
135,139978735.06113192
3420,139978735.06113192
2,12,11,21, 0, 4, 0.00,60.00,Sunday
135,47088379.70955594
3420,47088379.70955595
2,12,11,21, 0, 5, 0.00,60.00,Sunday
135,124660670.09970474
3420,124660670.09970477
2,12,11,21, 0, 6, 0.00,60.00,Sunday
135,47088379.70955594
3420,47088379.70955595
2,12,11,21, 0, 7, 0.00,60.00,Sunday
135,132187098.33344017
3420,132187098.33344017
2,12,11,21, 0, 8, 0.00,60.00,Sunday
135,45738022.89766529
3420,45738022.89766528
2,12,11,21, 0, 9, 0.00,60.00,Sunday
135,171719532.09247828
3420,171719532.09247828
2,12,11,21, 0,10, 0.00,60.00,Sunday
135,45638118.19243601
3420,45638118.19243601
2,12,11,21, 0,11, 0.00,60.00,Sunday
135,206461609.11405188
3420,206461609.11405188
2,12,11,21, 0,12, 0.00,60.00,Sunday
135,45638118.19243602
3420,45638118.19243602
2,12,11,21, 0,13, 0.00,60.00,Sunday
135,230354963.96492997
3420,230354963.96492994
2,12,11,21, 0,14, 0.00,60.00,Sunday
135,45638118.19243601
3420,45638118.192436
2,12,11,21, 0,15, 0.00,60.00,Sunday
135,244549001.36287466
3420,244549001.3628747
2,12,11,21, 0,16, 0.00,60.00,Sunday
135,45638118.19243602
3420,45638118.19243602
2,12,11,21, 0,17, 0.00,60.00,Sunday
135,254572420.75191337
3420,254572420.7519133
2,12,11,21, 0,18, 0.00,60.00,Sunday
135,45706568.089249976
3420,45706568.08924997
2,12,11,21, 0,19, 0.00,60.00,Sunday
135,225237115.74099198
3420,225237115.740992
2,12,11,21, 0,20, 0.00,60.00,Sunday
135,49852043.76632162
3420,49852043.76632161
2,12,11,21, 0,21, 0.00,60.00,Sunday
135,161904058.39595
3420,161904058.39595002
2,12,11,21, 0,22, 0.00,60.00,Sunday
135,49851883.70955594
3420,49851883.709555924
2,12,11,21, 0,23, 0.00,60.00,Sunday
135,147924377.9323398
3420,147924377.93233982
2,12,11,21, 0,24, 0.00,60.00,Sunday
135,49851883.70955594
3420,49851883.70955593
2,13,11,22, 0, 1, 0.00,60.00,Monday
135,147535538.5023346
3420,147535538.50233462
2,13,11,22, 0, 2, 0.00,60.00,Monday
135,58339004.11373618
3420,58339004.113736175
2,13,11,22, 0, 3, 0.00,60.00,Monday
135,144740167.8956784
3420,144740167.8956784
2,13,11,22, 0, 4, 0.00,60.00,Monday
135,58339004.11373618
3420,58339004.113736175
2,13,11,22, 0, 5, 0.00,60.00,Monday
135,146540715.76673338
3420,146540715.7667334
2,13,11,22, 0, 6, 0.00,60.00,Monday
135,58339004.11373618
3420,58339004.11373619
2,13,11,22, 0, 7, 0.00,60.00,Monday
135,143561004.2568901
3420,143561004.2568901
2,13,11,22, 0, 8, 0.00,60.00,Monday
135,166979003.8356663
3420,166979003.8356663
2,13,11,22, 0, 9, 0.00,60.00,Monday
135,355115836.07537216
3420,355115836.07537216
2,13,11,22, 0,10, 0.00,60.00,Monday
135,385861936.722635
3420,385861936.7226349
2,13,11,22, 0,11, 0.00,60.00,Monday
135,401662627.9027724
3420,401662627.90277255
2,13,11,22, 0,12, 0.00,60.00,Monday
135,409894430.9506085
3420,409894430.9506085
2,13,11,22, 0,13, 0.00,60.00,Monday
135,394218917.9673743
3420,394218917.9673743
2,13,11,22, 0,14, 0.00,60.00,Monday
135,424514618.5074532
3420,424514618.5074532
2,13,11,22, 0,15, 0.00,60.00,Monday
135,421279605.21149987
3420,421279605.21149987
2,13,11,22, 0,16, 0.00,60.00,Monday
135,424879407.21272975
3420,424879407.21272975
2,13,11,22, 0,17, 0.00,60.00,Monday
135,425217870.13770664
3420,425217870.1377067
2,13,11,22, 0,18, 0.00,60.00,Monday
135,339718436.0042554
3420,339718436.0042554
2,13,11,22, 0,19, 0.00,60.00,Monday
135,315304203.99614507
3420,315304203.99614507
2,13,11,22, 0,20, 0.00,60.00,Monday
135,277741763.1057233
3420,277741763.1057233
2,13,11,22, 0,21, 0.00,60.00,Monday
135,242168596.10029662
3420,242168596.10029662
2,13,11,22, 0,22, 0.00,60.00,Monday
135,219265860.61069453
3420,219265860.61069456
2,13,11,22, 0,23, 0.00,60.00,Monday
135,189276196.2892484
3420,189276196.28924838
2,13,11,22, 0,24, 0.00,60.00,Monday
135,72563947.72384587
3420,72563947.72384587
2,14,11,23, 0, 1, 0.00,60.00,Tuesday
135,148708351.36265776
3420,148708351.3626578
2,14,11,23, 0, 2, 0.00,60.00,Tuesday
135,58339223.49717496
3420,58339223.49717496
2,14,11,23, 0, 3, 0.00,60.00,Tuesday
135,146826245.59545225
3420,146826245.59545222
2,14,11,23, 0, 4, 0.00,60.00,Tuesday
135,58339004.11373618
3420,58339004.11373619
2,14,11,23, 0, 5, 0.00,60.00,Tuesday
135,143875138.37429786
3420,143875138.37429786
2,14,11,23, 0, 6, 0.00,60.00,Tuesday
135,58339004.11373618
3420,58339004.11373619
2,14,11,23, 0, 7, 0.00,60.00,Tuesday
135,143734081.95676434
3420,143734081.95676434
2,14,11,23, 0, 8, 0.00,60.00,Tuesday
135,159211734.51867032
3420,159211734.51867035
2,14,11,23, 0, 9, 0.00,60.00,Tuesday
135,345539652.13984334
3420,345539652.1398433
2,14,11,23, 0,10, 0.00,60.00,Tuesday
135,384241127.8956962
3420,384241127.8956962
2,14,11,23, 0,11, 0.00,60.00,Tuesday
135,388371309.6197125
3420,388371309.6197125
2,14,11,23, 0,12, 0.00,60.00,Tuesday
135,406479936.50393146
3420,406479936.5039316
2,14,11,23, 0,13, 0.00,60.00,Tuesday
135,375569790.58888346
3420,375569790.5888835
2,14,11,23, 0,14, 0.00,60.00,Tuesday
135,421384441.40895206
3420,421384441.40895224
2,14,11,23, 0,15, 0.00,60.00,Tuesday
135,421158900.7950285
3420,421158900.79502857
2,14,11,23, 0,16, 0.00,60.00,Tuesday
135,421505381.1971985
3420,421505381.1971985
2,14,11,23, 0,17, 0.00,60.00,Tuesday
135,423626321.60281616
3420,423626321.6028163
2,14,11,23, 0,18, 0.00,60.00,Tuesday
135,338855546.7255029
3420,338855546.7255029
2,14,11,23, 0,19, 0.00,60.00,Tuesday
135,277400335.59147614
3420,277400335.59147614
2,14,11,23, 0,20, 0.00,60.00,Tuesday
135,238402176.54584098
3420,238402176.54584098
2,14,11,23, 0,21, 0.00,60.00,Tuesday
135,202019742.4753195
3420,202019742.4753195
2,14,11,23, 0,22, 0.00,60.00,Tuesday
135,189930411.21626896
3420,189930411.21626896
2,14,11,23, 0,23, 0.00,60.00,Tuesday
135,165067679.36882737
3420,165067679.36882737
2,14,11,23, 0,24, 0.00,60.00,Tuesday
135,72563947.72384587
3420,72563947.72384587
2,15,11,24, 0, 1, 0.00,60.00,Wednesday
135,146830666.80637783
3420,146830666.80637783
2,15,11,24, 0, 2, 0.00,60.00,Wednesday
135,58339223.49717496
3420,58339223.49717496
2,15,11,24, 0, 3, 0.00,60.00,Wednesday
135,147558862.98267034
3420,147558862.98267034
2,15,11,24, 0, 4, 0.00,60.00,Wednesday
135,58339004.11373618
3420,58339004.11373618
2,15,11,24, 0, 5, 0.00,60.00,Wednesday
135,133330992.01146337
3420,133330992.0114634
2,15,11,24, 0, 6, 0.00,60.00,Wednesday
135,58339004.11373618
3420,58339004.11373618
2,15,11,24, 0, 7, 0.00,60.00,Wednesday
135,132053371.75700466
3420,132053371.75700465
2,15,11,24, 0, 8, 0.00,60.00,Wednesday
135,163807695.8133636
3420,163807695.81336364
2,15,11,24, 0, 9, 0.00,60.00,Wednesday
135,360341405.9288804
3420,360341405.92888045
2,15,11,24, 0,10, 0.00,60.00,Wednesday
135,375030362.7296273
3420,375030362.7296273
2,15,11,24, 0,11, 0.00,60.00,Wednesday
135,402986013.8675476
3420,402986013.86754763
2,15,11,24, 0,12, 0.00,60.00,Wednesday
135,420116133.15220314
3420,420116133.1522032
2,15,11,24, 0,13, 0.00,60.00,Wednesday
135,387962771.58826214
3420,387962771.5882622
2,15,11,24, 0,14, 0.00,60.00,Wednesday
135,421023576.8370025
3420,421023576.83700264
2,15,11,24, 0,15, 0.00,60.00,Wednesday
135,421124788.4971008
3420,421124788.49710083
2,15,11,24, 0,16, 0.00,60.00,Wednesday
135,424660181.5384268
3420,424660181.5384269
2,15,11,24, 0,17, 0.00,60.00,Wednesday
135,421607533.34119886
3420,421607533.3411988
2,15,11,24, 0,18, 0.00,60.00,Wednesday
135,321002173.76371586
3420,321002173.76371586
2,15,11,24, 0,19, 0.00,60.00,Wednesday