Program Version,EnergyPlus, Version 23.1.0-87ed9199d4, YMD=2026.02.01 15:38
1,5,Environment Title[],Latitude[deg],Longitude[deg],Time Zone[],Elevation[m]
2,8,Day of Simulation[],Month[],Day of Month[],DST Indicator[1=yes 0=no],Hour[],StartMinute[],EndMinute[],DayType
3,5,Cumulative Day of Simulation[],Month[],Day of Month[],DST Indicator[1=yes 0=no],DayType  ! When Daily Report Variables Requested
4,2,Cumulative Days of Simulation[],Month[]  ! When Monthly Report Variables Requested
5,1,Cumulative Days of Simulation[] ! When Run Period Report Variables Requested
6,1,Calendar Year of Simulation[] ! When Annual Report Variables Requested
1945,1,PERIMETER_BOT_ZN_1,Zone Mean Air Temperature [C] !TimeStep
3320,1,Whole Building,Facility Total Purchased Electricity Energy [J] !TimeStep
End of Data Dictionary
1,RUNPERIOD 1,  -2.16, -79.88,  -5.00,   5.80
2,1,11, 4, 1, 1, 0.00,60.00,Thursday
1945,24.373539281372448
3320,117045206.715318
2,1,11, 4, 1, 2, 0.00,60.00,Thursday
1945,25.412962488511816
3320,58339004.11373618
2,1,11, 4, 1, 3, 0.00,60.00,Thursday
1945,24.0302433041311
3320,134410148.57149404
2,1,11, 4, 1, 4, 0.00,60.00,Thursday
1945,25.292285762665884
3320,58339004.11373618
2,1,11, 4, 1, 5, 0.00,60.00,Thursday
1945,24.036663734025954
3320,141234727.17944583
2,1,11, 4, 1, 6, 0.00,60.00,Thursday
1945,23.99978895127044
3320,140325293.82708004
2,1,11, 4, 1, 7, 0.00,60.00,Thursday
1945,23.999548805449656
3320,149852414.02802262
2,1,11, 4, 1, 8, 0.00,60.00,Thursday
1945,23.995019525156543
3320,315663308.391069
2,1,11, 4, 1, 9, 0.00,60.00,Thursday
1945,24.171665276128365
3320,336102373.43467546
2,1,11, 4, 1,10, 0.00,60.00,Thursday
1945,24.689349618831127
3320,363104088.467544
2,1,11, 4, 1,11, 0.00,60.00,Thursday
1945,25.073455805795092
3320,363985203.58712035
2,1,11, 4, 1,12, 0.00,60.00,Thursday
1945,25.44825254461957
3320,351980499.34698826
2,1,11, 4, 1,13, 0.00,60.00,Thursday
1945,25.77693388817797
3320,405165686.44696766
2,1,11, 4, 1,14, 0.00,60.00,Thursday
1945,26.00420569796102
3320,398839966.6521901
2,1,11, 4, 1,15, 0.00,60.00,Thursday
1945,25.90073180446846
3320,409426282.9201096
2,1,11, 4, 1,16, 0.00,60.00,Thursday
1945,25.83297956529676
3320,409935189.9468163
2,1,11, 4, 1,17, 0.00,60.00,Thursday
1945,25.15210830635635
3320,268485662.7692479
2,1,11, 4, 1,18, 0.00,60.00,Thursday
1945,24.613198385538595
3320,224636133.35689074
2,1,11, 4, 1,19, 0.00,60.00,Thursday
1945,24.104058598187027
3320,210572889.89485666
2,1,11, 4, 1,20, 0.00,60.00,Thursday
1945,24.00352554632536
3320,184319253.71164277
2,1,11, 4, 1,21, 0.00,60.00,Thursday
1945,23.999288292125385
3320,177283712.76037288
2,1,11, 4, 1,22, 0.00,60.00,Thursday
1945,24.25016250381936
3320,153913267.866725
2,1,11, 4, 1,23, 0.00,60.00,Thursday
1945,25.610576575464457
3320,72563947.72384587
2,1,11, 4, 1,24, 0.00,60.00,Thursday
1945,24.09019356158198
3320,148145576.1529343
2,2,11, 5, 1, 1, 0.00,60.00,Friday
1945,25.4991303611144
3320,58339223.49717496
2,2,11, 5, 1, 2, 0.00,60.00,Friday
1945,24.15378580689594
3320,135805277.3659679
2,2,11, 5, 1, 3, 0.00,60.00,Friday
1945,25.425165684239584
3320,58339004.11373618
2,2,11, 5, 1, 4, 0.00,60.00,Friday
1945,24.02983830789225
3320,133826593.84661405
2,2,11, 5, 1, 5, 0.00,60.00,Friday
1945,25.244279345764856
3320,58339004.11373618
2,2,11, 5, 1, 6, 0.00,60.00,Friday
1945,24.107367492677877
3320,158750438.45015407
2,2,11, 5, 1, 7, 0.00,60.00,Friday
1945,23.999476608326137
3320,143199039.40071422
2,2,11, 5, 1, 8, 0.00,60.00,Friday
1945,24.154399786999385
3320,317916191.2258033
2,2,11, 5, 1, 9, 0.00,60.00,Friday
1945,24.307483802792397
3320,347584171.44277
2,2,11, 5, 1,10, 0.00,60.00,Friday
1945,25.056120936476407
3320,371820352.0545673
2,2,11, 5, 1,11, 0.00,60.00,Friday
1945,25.621304219222466
3320,380566774.1979748
2,2,11, 5, 1,12, 0.00,60.00,Friday
1945,26.425193536722873
3320,367769192.6686542
2,2,11, 5, 1,13, 0.00,60.00,Friday
1945,26.177316927211848
3320,416634315.8892467
2,2,11, 5, 1,14, 0.00,60.00,Friday
1945,26.396250293260707
3320,409505849.86491734
2,2,11, 5, 1,15, 0.00,60.00,Friday
1945,26.61687470496456
3320,420975870.9099808
2,2,11, 5, 1,16, 0.00,60.00,Friday
1945,26.580086354049808
3320,420985037.84480536
2,2,11, 5, 1,17, 0.00,60.00,Friday
1945,27.330223679492033
3320,313608318.4521346
2,2,11, 5, 1,18, 0.00,60.00,Friday
1945,26.12552011447714
3320,304289989.6589802
2,2,11, 5, 1,19, 0.00,60.00,Friday
1945,24.86380806788537
3320,270114843.4646125
2,2,11, 5, 1,20, 0.00,60.00,Friday
1945,24.56483816762516
3320,234139260.25301886
2,2,11, 5, 1,21, 0.00,60.00,Friday
1945,24.24701759542897
3320,203903320.23923707
2,2,11, 5, 1,22, 0.00,60.00,Friday
1945,24.45020549694422
3320,175847549.53937775
2,2,11, 5, 1,23, 0.00,60.00,Friday
1945,25.94030605331812
3320,72563947.72384587
2,2,11, 5, 1,24, 0.00,60.00,Friday
1945,24.109167148671744
3320,135309943.89062893
2,3,11, 6, 1, 1, 0.00,60.00,Saturday
1945,25.688302870693764
3320,47088539.76632162
2,3,11, 6, 1, 2, 0.00,60.00,Saturday
1945,24.078031551858416
3320,135344126.22036493
2,3,11, 6, 1, 3, 0.00,60.00,Saturday
1945,25.539863964086994
3320,47088379.70955595
2,3,11, 6, 1, 4, 0.00,60.00,Saturday
1945,24.057628441012113
3320,135372393.2305432
2,3,11, 6, 1, 5, 0.00,60.00,Saturday
1945,25.455185491179275
3320,47088379.70955594
2,3,11, 6, 1, 6, 0.00,60.00,Saturday
1945,24.033486530538454
3320,153504999.3351221
2,3,11, 6, 1, 7, 0.00,60.00,Saturday
1945,23.999702040995327
3320,123147871.49497981
2,3,11, 6, 1, 8, 0.00,60.00,Saturday
1945,23.9995507204142
3320,194458923.6486795
2,3,11, 6, 1, 9, 0.00,60.00,Saturday
1945,24.467829434560763
3320,215863001.6517229
2,3,11, 6, 1,10, 0.00,60.00,Saturday
1945,25.05181754847548
3320,240609258.85348386
2,3,11, 6, 1,11, 0.00,60.00,Saturday
1945,25.46155648695784
3320,249898433.07143754
2,3,11, 6, 1,12, 0.00,60.00,Saturday
1945,25.909024740731986
3320,228273005.70675993
2,3,11, 6, 1,13, 0.00,60.00,Saturday
1945,26.17525348962399
3320,235263672.1004336
2,3,11, 6, 1,14, 0.00,60.00,Saturday
1945,26.192933692927284
3320,231131499.67563918
2,3,11, 6, 1,15, 0.00,60.00,Saturday
1945,26.24721305281819
3320,235164903.37677276
2,3,11, 6, 1,16, 0.00,60.00,Saturday
1945,26.256015715201876
3320,240377575.76648757
2,3,11, 6, 1,17, 0.00,60.00,Saturday
1945,26.08663660286282
3320,221060536.914461
2,3,11, 6, 1,18, 0.00,60.00,Saturday
1945,25.959789539564156
3320,217934695.55017954
2,3,11, 6, 1,19, 0.00,60.00,Saturday
1945,27.53692273153068
3320,50491177.195614256
2,3,11, 6, 1,20, 0.00,60.00,Saturday
1945,24.318163240187612
3320,166120141.19685552
2,3,11, 6, 1,21, 0.00,60.00,Saturday
1945,26.51365797607108
3320,49851883.70955593
2,3,11, 6, 1,22, 0.00,60.00,Saturday
1945,24.24108314016061
3320,129918180.96354482
2,3,11, 6, 1,23, 0.00,60.00,Saturday
1945,26.147105238753547
3320,49851883.70955593
2,3,11, 6, 1,24, 0.00,60.00,Saturday
1945,24.131110654670273
3320,128747473.90377046
2,4,11, 7, 1, 1, 0.00,60.00,Sunday
1945,25.85800107850916
3320,47088379.70955595
2,4,11, 7, 1, 2, 0.00,60.00,Sunday
1945,24.08526202939883
3320,124502612.92353718
2,4,11, 7, 1, 3, 0.00,60.00,Sunday
1945,25.68438707315117
3320,47088379.70955595
2,4,11, 7, 1, 4, 0.00,60.00,Sunday
1945,24.080394804442804
3320,125551011.77881092
2,4,11, 7, 1, 5, 0.00,60.00,Sunday
1945,25.610418488897892
3320,47088379.70955595
2,4,11, 7, 1, 6, 0.00,60.00,Sunday
1945,24.08176253121715
3320,149887902.8897416
2,4,11, 7, 1, 7, 0.00,60.00,Sunday
1945,25.522674487421337
3320,46598021.620128244
2,4,11, 7, 1, 8, 0.00,60.00,Sunday
1945,24.223879293399836
3320,140634017.50501856
2,4,11, 7, 1, 9, 0.00,60.00,Sunday
1945,26.75425710079828
3320,45638145.961150356
2,4,11, 7, 1,10, 0.00,60.00,Sunday
1945,24.95978274086513
3320,177316302.38006443
2,4,11, 7, 1,11, 0.00,60.00,Sunday
1945,27.833853482209722
3320,45638118.19243602
2,4,11, 7, 1,12, 0.00,60.00,Sunday
1945,25.61016028546631
3320,210612463.64910093
2,4,11, 7, 1,13, 0.00,60.00,Sunday
1945,28.58235572588487
3320,45638118.19243602
2,4,11, 7, 1,14, 0.00,60.00,Sunday
1945,26.27777828821491
3320,217730155.62628523
2,4,11, 7, 1,15, 0.00,60.00,Sunday
1945,29.07541405724446
3320,45638118.19243602
2,4,11, 7, 1,16, 0.00,60.00,Sunday
1945,26.221977919042022
3320,226589926.94768932
2,4,11, 7, 1,17, 0.00,60.00,Sunday
1945,29.109992624855
3320,45638118.19243601
2,4,11, 7, 1,18, 0.00,60.00,Sunday
1945,25.884874978551935
3320,224051499.83298844
2,4,11, 7, 1,19, 0.00,60.00,Sunday
1945,27.905183591887358
3320,50112538.84938995
2,4,11, 7, 1,20, 0.00,60.00,Sunday
1945,24.433594040695194
3320,178702379.60692367
2,4,11, 7, 1,21, 0.00,60.00,Sunday
1945,26.824981802287944
3320,49851883.709555924
2,4,11, 7, 1,22, 0.00,60.00,Sunday
1945,24.303107252582468
3320,138535744.71483162
2,4,11, 7, 1,23, 0.00,60.00,Sunday
1945,26.4291311462853
3320,49851883.709555924
2,4,11, 7, 1,24, 0.00,60.00,Sunday
1945,24.26578398930747
3320,149960143.8275431
2,5,11, 8, 0, 1, 0.00,60.00,Monday
1945,26.236974197651843
3320,58339004.113736175
2,5,11, 8, 0, 2, 0.00,60.00,Monday
1945,24.193148933586553
3320,144685938.48907435
2,5,11, 8, 0, 3, 0.00,60.00,Monday
1945,26.01565913780838
3320,58339004.113736175
2,5,11, 8, 0, 4, 0.00,60.00,Monday
1945,24.126077146537966
3320,141195341.04100257
2,5,11, 8, 0, 5, 0.00,60.00,Monday
1945,25.841918990422066
3320,58339004.113736175
2,5,11, 8, 0, 6, 0.00,60.00,Monday
1945,24.13309548842923
3320,144434401.911095
2,5,11, 8, 0, 7, 0.00,60.00,Monday
1945,24.27169619454301
3320,126089081.16383857
2,5,11, 8, 0, 8, 0.00,60.00,Monday
1945,24.0513995057254
3320,185234041.53215986
2,5,11, 8, 0, 9, 0.00,60.00,Monday
1945,25.11100260925417
3320,364436369.89655954
2,5,11, 8, 0,10, 0.00,60.00,Monday
1945,25.582845576462702
3320,379935462.4150126
2,5,11, 8, 0,11, 0.00,60.00,Monday
1945,26.284708551180653
3320,396576711.8631559
2,5,11, 8, 0,12, 0.00,60.00,Monday
1945,26.858315581896555
3320,411971288.28268975
2,5,11, 8, 0,13, 0.00,60.00,Monday
1945,27.348975734914287
3320,391164747.4469357
2,5,11, 8, 0,14, 0.00,60.00,Monday
1945,27.47900900667618
3320,416569405.74616194
2,5,11, 8, 0,15, 0.00,60.00,Monday
1945,27.887048152938355
3320,421069955.0052396
2,5,11, 8, 0,16, 0.00,60.00,Monday
1945,28.012801230145115
3320,421330962.09546554
2,5,11, 8, 0,17, 0.00,60.00,Monday
1945,27.995067018617796
3320,421425132.2962378
2,5,11, 8, 0,18, 0.00,60.00,Monday
1945,28.129993959352333
3320,339017596.8142748
2,5,11, 8, 0,19, 0.00,60.00,Monday
1945,25.883903926484106
3320,306259835.0456209
2,5,11, 8, 0,20, 0.00,60.00,Monday
1945,25.61976486751663
3320,267562241.25762278
2,5,11, 8, 0,21, 0.00,60.00,Monday
1945,25.177839131327442
3320,224582295.73705807
2,5,11, 8, 0,22, 0.00,60.00,Monday
1945,24.90569024812831
3320,199088258.5505489
2,5,11, 8, 0,23, 0.00,60.00,Monday
1945,24.70799510317837
3320,176878250.99712616
2,5,11, 8, 0,24, 0.00,60.00,Monday
1945,26.73132907491943
3320,72563947.72384587
2,6,11, 9, 0, 1, 0.00,60.00,Tuesday
1945,24.28887121279095
3320,133353558.12794961
2,6,11, 9, 0, 2, 0.00,60.00,Tuesday
1945,26.45114962815834
3320,58339223.497174956
2,6,11, 9, 0, 3, 0.00,60.00,Tuesday
1945,24.18846287671495
3320,136863773.4194762
2,6,11, 9, 0, 4, 0.00,60.00,Tuesday
1945,26.201438373590925
3320,58339004.113736175
2,6,11, 9, 0, 5, 0.00,60.00,Tuesday
1945,24.20564619071802
3320,142185036.40342388
2,6,11, 9, 0, 6, 0.00,60.00,Tuesday
1945,26.051463047822693
3320,58339004.113736175
2,6,11, 9, 0, 7, 0.00,60.00,Tuesday
1945,24.119220550347563
3320,133282264.18942694
2,6,11, 9, 0, 8, 0.00,60.00,Tuesday
1945,24.019130002906092
3320,181936245.69779512
2,6,11, 9, 0, 9, 0.00,60.00,Tuesday
1945,25.237516633359768
3320,359517395.4675087
2,6,11, 9, 0,10, 0.00,60.00,Tuesday
1945,25.792187633853153
3320,385414507.29359615
2,6,11, 9, 0,11, 0.00,60.00,Tuesday
1945,26.394042466216696
3320,396403080.95774764
2,6,11, 9, 0,12, 0.00,60.00,Tuesday
1945,26.8061649369103
3320,400117283.1768834
2,6,11, 9, 0,13, 0.00,60.00,Tuesday
1945,27.133610136636896
3320,391913616.685666
2,6,11, 9, 0,14, 0.00,60.00,Tuesday
1945,27.6203554536443
3320,412121487.38204145
2,6,11, 9, 0,15, 0.00,60.00,Tuesday
1945,28.017597917890612
3320,419908867.1390068
2,6,11, 9, 0,16, 0.00,60.00,Tuesday
1945,28.166890719182422
3320,424601341.32383513
2,6,11, 9, 0,17, 0.00,60.00,Tuesday
1945,27.936610263253677
3320,421920694.0592711
2,6,11, 9, 0,18, 0.00,60.00,Tuesday
1945,28.079358535063076
3320,338312197.30341846
2,6,11, 9, 0,19, 0.00,60.00,Tuesday
1945,25.930882106936675
3320,306786720.3956892
2,6,11, 9, 0,20, 0.00,60.00,Tuesday
1945,25.675433654955373
3320,270521709.8203449
2,6,11, 9, 0,21, 0.00,60.00,Tuesday
1945,25.231399976573588
3320,225895508.2270372
2,6,11, 9, 0,22, 0.00,60.00,Tuesday
1945,24.93130153338518
3320,209562046.38813904
2,6,11, 9, 0,23, 0.00,60.00,Tuesday
1945,24.724974654866283
3320,181312501.27369007
2,6,11, 9, 0,24, 0.00,60.00,Tuesday
1945,26.7497411137687
3320,72563947.72384587
2,7,11,10, 0, 1, 0.00,60.00,Wednesday
1945,24.351291719950154
3320,143642773.34893262
2,7,11,10, 0, 2, 0.00,60.00,Wednesday
1945,26.45992343073293
3320,58339223.497174956
2,7,11,10, 0, 3, 0.00,60.00,Wednesday
1945,24.19487981727572
3320,141097594.73038155
2,7,11,10, 0, 4, 0.00,60.00,Wednesday
1945,26.240766145247655
3320,58339004.113736175
2,7,11,10, 0, 5, 0.00,60.00,Wednesday
1945,24.15889759641425
3320,135971587.77014324
2,7,11,10, 0, 6, 0.00,60.00,Wednesday
1945,26.042222078361625
3320,58339004.113736175
2,7,11,10, 0, 7, 0.00,60.00,Wednesday
1945,24.19681474544864
3320,140601168.19339722
2,7,11,10, 0, 8, 0.00,60.00,Wednesday
1945,24.038173444649388
3320,193211345.11063546
2,7,11,10, 0, 9, 0.00,60.00,Wednesday
1945,25.298900875806407
3320,369863386.7442943
2,7,11,10, 0,10, 0.00,60.00,Wednesday
1945,26.050396323027503
3320,397845980.9016251
2,7,11,10, 0,11, 0.00,60.00,Wednesday
1945,26.573313704633122
3320,403111889.6063194
2,7,11,10, 0,12, 0.00,60.00,Wednesday
1945,27.015976150642018
3320,412059811.32523924
2,7,11,10, 0,13, 0.00,60.00,Wednesday
1945,27.57348339561889
3320,400634315.4023588
2,7,11,10, 0,14, 0.00,60.00,Wednesday
1945,27.925573534976074
3320,421020541.1382877
2,7,11,10, 0,15, 0.00,60.00,Wednesday
1945,28.252059619123152
3320,424569191.1236417
2,7,11,10, 0,16, 0.00,60.00,Wednesday
1945,28.404743757453783
3320,427929261.0028285
2,7,11,10, 0,17, 0.00,60.00,Wednesday
1945,28.137812647028735
3320,425831857.91267455
2,7,11,10, 0,18, 0.00,60.00,Wednesday
1945,28.444583385505958
3320,341829728.9886223
2,7,11,10, 0,19, 0.00,60.00,Wednesday
1945,26.191314475634602
3320,324294954.0287581
2,7,11,10, 0,20, 0.00,60.00,Wednesday
1945,25.829949741466876
3320,293992391.48766667
2,7,11,10, 0,21, 0.00,60.00,Wednesday
1945,25.387066708404067
3320,249151001.1316727
2,7,11,10, 0,22, 0.00,60.00,Wednesday
1945,25.115025132295703
3320,215768355.3402823
2,7,11,10, 0,23, 0.00,60.00,Wednesday
1945,24.835375436650626
3320,189259278.89214364
2,7,11,10, 0,24, 0.00,60.00,Wednesday
1945,26.864731506297154
3320,72563947.72384587
2,8,11,11, 0, 1, 0.00,60.00,Holiday
1945,24.266568604913274
3320,141101270.8065773
2,8,11,11, 0, 2, 0.00,60.00,Holiday
1945,26.521523448117783
3320,47088539.766321614
2,8,11,11, 0, 3, 0.00,60.00,Holiday
1945,24.30303702384402
3320,137834699.4379825
2,8,11,11, 0, 4, 0.00,60.00,Holiday
1945,26.34516137703941
3320,47088379.70955593
2,8,11,11, 0, 5, 0.00,60.00,Holiday
1945,24.17487242558228
3320,135938952.29466292
2,8,11,11, 0, 6, 0.00,60.00,Holiday
1945,26.11663852284072
3320,47088379.70955593
2,8,11,11, 0, 7, 0.00,60.00,Holiday
1945,24.30477090584141
3320,136787633.40477726
2,8,11,11, 0, 8, 0.00,60.00,Holiday
1945,26.427230568154062
3320,45743246.76570778
2,8,11,11, 0, 9, 0.00,60.00,Holiday
1945,24.499439163189358
3320,168033070.05529225
2,8,11,11, 0,10, 0.00,60.00,Holiday
1945,27.441512760877984
3320,45638118.192436
2,8,11,11, 0,11, 0.00,60.00,Holiday
1945,25.765180867888006
3320,202999820.78153768
2,8,11,11, 0,12, 0.00,60.00,Holiday
1945,28.747868838109657
3320,45638118.19243602
2,8,11,11, 0,13, 0.00,60.00,Holiday
1945,26.368181684024485
3320,219575160.16897485
2,8,11,11, 0,14, 0.00,60.00,Holiday
1945,29.469183234609055
3320,45638118.19243601
2,8,11,11, 0,15, 0.00,60.00,Holiday
1945,26.949080824373173
3320,236732298.98923784
2,8,11,11, 0,16, 0.00,60.00,Holiday
1945,29.705229436795392
3320,45638118.192436
2,8,11,11, 0,17, 0.00,60.00,Holiday
1945,26.434823810123042
3320,236536580.03705657
2,8,11,11, 0,18, 0.00,60.00,Holiday
1945,29.15859110038558
3320,45686717.34699342
2,8,11,11, 0,19, 0.00,60.00,Holiday
1945,25.41370276008761
3320,216138240.93386376
2,8,11,11, 0,20, 0.00,60.00,Holiday
1945,27.699885141190716
3320,49852043.76632161
2,8,11,11, 0,21, 0.00,60.00,Holiday
1945,24.640402360615376
3320,169113077.19538242
2,8,11,11, 0,22, 0.00,60.00,Holiday
1945,26.969257548009498
3320,49851883.709555924
2,8,11,11, 0,23, 0.00,60.00,Holiday
1945,24.28182516074633
3320,139348853.42799738
2,8,11,11, 0,24, 0.00,60.00,Holiday
1945,26.601958271402168
3320,49851883.709555924
2,9,11,12, 0, 1, 0.00,60.00,Friday
1945,24.366355963481382
3320,147241617.3604768
2,9,11,12, 0, 2, 0.00,60.00,Friday
1945,26.38738545471934
3320,58339004.113736175
2,9,11,12, 0, 3, 0.00,60.00,Friday
1945,24.282548972291043
3320,140889148.1086859
2,9,11,12, 0, 4, 0.00,60.00,Friday
1945,26.151988674740394
3320,58339004.113736175
2,9,11,12, 0, 5, 0.00,60.00,Friday
1945,24.142407772479583
3320,138277694.4395362
2,9,11,12, 0, 6, 0.00,60.00,Friday
1945,25.995802471886996
3320,58339004.113736175
2,9,11,12, 0, 7, 0.00,60.00,Friday
1945,24.206220380140405
3320,144262648.1363881
2,9,11,12, 0, 8, 0.00,60.00,Friday
1945,24.01748177408086
3320,195887801.9722679
2,9,11,12, 0, 9, 0.00,60.00,Friday
1945,25.306472797248247
3320,374298970.6738516
2,9,11,12, 0,10, 0.00,60.00,Friday
1945,26.065441888226708
3320,393238803.1006757
2,9,11,12, 0,11, 0.00,60.00,Friday
1945,26.648406374785612
3320,403978469.70512104
2,9,11,12, 0,12, 0.00,60.00,Friday
1945,27.112140855117755
3320,407871840.8219506
2,9,11,12, 0,13, 0.00,60.00,Friday
1945,27.942835988813087
3320,404663471.3279818
2,9,11,12, 0,14, 0.00,60.00,Friday
1945,28.018730620811354
3320,422590068.9423642
2,9,11,12, 0,15, 0.00,60.00,Friday
1945,28.40248481480456
3320,427167487.0119772
2,9,11,12, 0,16, 0.00,60.00,Friday
1945,28.516366516923046
3320,427885296.4744427
2,9,11,12, 0,17, 0.00,60.00,Friday
1945,28.406614992301783
3320,427947193.97589695
2,9,11,12, 0,18, 0.00,60.00,Friday
1945,28.485021887018544
3320,340812820.1572819
2,9,11,12, 0,19, 0.00,60.00,Friday
1945,26.23563404150024
3320,314165229.3288571
2,9,11,12, 0,20, 0.00,60.00,Friday
1945,25.912179842505697
3320,286735649.17235005
2,9,11,12, 0,21, 0.00,60.00,Friday
1945,25.505568179383538
3320,237632570.68932626
2,9,11,12, 0,22, 0.00,60.00,Friday
1945,25.191844303621856
3320,210665595.38451776
2,9,11,12, 0,23, 0.00,60.00,Friday
1945,24.963722651015182
3320,188299078.93256524
2,9,11,12, 0,24, 0.00,60.00,Friday
1945,26.951191703111473
3320,72563947.72384587
2,10,11,13, 0, 1, 0.00,60.00,Saturday
1945,24.496313833098135
3320,125652131.60546407
2,10,11,13, 0, 2, 0.00,60.00,Saturday
1945,26.58562188118637
3320,47088539.76632162
2,10,11,13, 0, 3, 0.00,60.00,Saturday
1945,24.22236085312639
3320,133248644.11468387
2,10,11,13, 0, 4, 0.00,60.00,Saturday
1945,26.316304941463528
3320,47088379.70955593
2,10,11,13, 0, 5, 0.00,60.00,Saturday
1945,24.226297320100095
3320,130916007.32814535
2,10,11,13, 0, 6, 0.00,60.00,Saturday
1945,26.150968721640215
3320,47088379.70955593
2,10,11,13, 0, 7, 0.00,60.00,Saturday
1945,24.219604253644224
3320,142135152.5373563
2,10,11,13, 0, 8, 0.00,60.00,Saturday
1945,24.7250794007284
3320,177410070.8602128
2,10,11,13, 0, 9, 0.00,60.00,Saturday
1945,25.317792483459307
3320,225885233.6683946
2,10,11,13, 0,10, 0.00,60.00,Saturday
1945,25.8619315803102
3320,239849503.04641926
2,10,11,13, 0,11, 0.00,60.00,Saturday
1945,26.42802559909266
3320,248909900.33203822
2,10,11,13, 0,12, 0.00,60.00,Saturday
1945,26.947620261699917
3320,277802017.98951507
2,10,11,13, 0,13, 0.00,60.00,Saturday
1945,27.12022077374762
3320,250663453.50126392
2,10,11,13, 0,14, 0.00,60.00,Saturday
1945,27.296804639311468
3320,253350044.1400762
2,10,11,13, 0,15, 0.00,60.00,Saturday
1945,27.49137570991287
3320,260677391.77413642
2,10,11,13, 0,16, 0.00,60.00,Saturday
1945,27.44890643402887
3320,268059281.33275962
2,10,11,13, 0,17, 0.00,60.00,Saturday
1945,27.28104280037707
3320,256771033.29023266
2,10,11,13, 0,18, 0.00,60.00,Saturday
1945,26.934220625337982
3320,265626294.2455007
2,10,11,13, 0,19, 0.00,60.00,Saturday
1945,25.850822297494727
3320,241101284.44960076
2,10,11,13, 0,20, 0.00,60.00,Saturday
1945,27.90625660964193
3320,50491404.8872167
2,10,11,13, 0,21, 0.00,60.00,Saturday
1945,24.752936396491876
3320,151228067.5501582
2,10,11,13, 0,22, 0.00,60.00,Saturday
1945,27.08172796112692
3320,49851883.709555924
2,10,11,13, 0,23, 0.00,60.00,Saturday
1945,24.32682441030656
3320,137313758.74560028
2,10,11,13, 0,24, 0.00,60.00,Saturday
1945,26.71496403218933
3320,49851883.709555924
2,11,11,14, 0, 1, 0.00,60.00,Sunday
1945,24.29209632459607
3320,129811911.52945594
2,11,11,14, 0, 2, 0.00,60.00,Sunday
1945,26.38170182150767
3320,47088379.70955593
2,11,11,14, 0, 3, 0.00,60.00,Sunday
1945,24.18516307489247
3320,127400947.57460688
2,11,11,14, 0, 4, 0.00,60.00,Sunday
1945,26.21444264925159
3320,47088379.70955593
2,11,11,14, 0, 5, 0.00,60.00,Sunday
1945,24.206322357737516
3320,136430582.1744923
2,11,11,14, 0, 6, 0.00,60.00,Sunday
1945,26.0174388343664
3320,47088379.70955593
2,11,11,14, 0, 7, 0.00,60.00,Sunday
1945,24.178247605086632
3320,129061914.07300739
2,11,11,14, 0, 8, 0.00,60.00,Sunday
1945,26.11789925504869
3320,45965402.11936401
2,11,11,14, 0, 9, 0.00,60.00,Sunday
1945,24.227487368707088
3320,142577722.1729038
2,11,11,14, 0,10, 0.00,60.00,Sunday
1945,26.52552224358704
3320,45673497.96904587
2,11,11,14, 0,11, 0.00,60.00,Sunday
1945,24.33713282876468
3320,167898975.30010474
2,11,11,14, 0,12, 0.00,60.00,Sunday
1945,27.011981619346706
3320,45638120.342206605
2,11,11,14, 0,13, 0.00,60.00,Sunday
1945,24.80598690896508
3320,196938512.6231882
2,11,11,14, 0,14, 0.00,60.00,Sunday
1945,27.712961488411928
3320,45638118.19243602
2,11,11,14, 0,15, 0.00,60.00,Sunday
1945,25.444306190779145
3320,212874307.59707353
2,11,11,14, 0,16, 0.00,60.00,Sunday
1945,28.042219854777937
3320,45638118.19243602
2,11,11,14, 0,17, 0.00,60.00,Sunday
1945,25.080318045823624
3320,238003746.25342005
2,11,11,14, 0,18, 0.00,60.00,Sunday
1945,27.809812234895595
3320,45732228.77129912
2,11,11,14, 0,19, 0.00,60.00,Sunday
1945,24.42505479162736
3320,185564251.4143579
2,11,11,14, 0,20, 0.00,60.00,Sunday
1945,26.700855316312513
3320,49852043.766321614
2,11,11,14, 0,21, 0.00,60.00,Sunday
1945,24.212874637310772
3320,142981621.72371426
2,11,11,14, 0,22, 0.00,60.00,Sunday
1945,26.20778137562755
3320,49851883.70955593
2,11,11,14, 0,23, 0.00,60.00,Sunday
1945,24.211689993667402
3320,134444715.57579604
2,11,11,14, 0,24, 0.00,60.00,Sunday
1945,25.928671687788146
3320,49851883.70955593
2,12,11,15, 0, 1, 0.00,60.00,Monday
1945,24.120136127848397
3320,135963565.82010514
2,12,11,15, 0, 2, 0.00,60.00,Monday
1945,25.79420484137336
3320,58339004.11373619
2,12,11,15, 0, 3, 0.00,60.00,Monday
1945,24.085478546417423
3320,130914259.68293571
2,12,11,15, 0, 4, 0.00,60.00,Monday
1945,25.616028266553556
3320,58339004.11373619
2,12,11,15, 0, 5, 0.00,60.00,Monday
1945,24.05003266079716
3320,128324944.42141835
2,12,11,15, 0, 6, 0.00,60.00,Monday
1945,25.486322293780244
3320,58339004.11373619
2,12,11,15, 0, 7, 0.00,60.00,Monday
1945,24.04481041370037
3320,142164272.17667916
2,12,11,15, 0, 8, 0.00,60.00,Monday
1945,23.998792651315995
3320,179930870.39695144
2,12,11,15, 0, 9, 0.00,60.00,Monday
1945,25.081010021466053
3320,362234438.2933689
2,12,11,15, 0,10, 0.00,60.00,Monday
1945,25.925608232553113
3320,385275483.3277567
2,12,11,15, 0,11, 0.00,60.00,Monday
1945,26.53194295292981
3320,404282171.2426676
2,12,11,15, 0,12, 0.00,60.00,Monday
1945,27.182042158861144
3320,414220569.0285601
2,12,11,15, 0,13, 0.00,60.00,Monday
1945,27.923492686730132
3320,395124837.5141146
2,12,11,15, 0,14, 0.00,60.00,Monday
1945,27.858793831553047
3320,420989367.2171233
2,12,11,15, 0,15, 0.00,60.00,Monday
1945,28.119624510676907
3320,427660530.4910342
2,12,11,15, 0,16, 0.00,60.00,Monday
1945,28.079540064394727
3320,428096218.34930557
2,12,11,15, 0,17, 0.00,60.00,Monday
1945,28.17010319443131
3320,429862008.59559166
2,12,11,15, 0,18, 0.00,60.00,Monday
1945,28.288180397785816
3320,342694747.1765778
2,12,11,15, 0,19, 0.00,60.00,Monday
1945,25.674637220319187
3320,311675938.5315668
2,12,11,15, 0,20, 0.00,60.00,Monday
1945,25.54795212627501
3320,267148821.19574594
2,12,11,15, 0,21, 0.00,60.00,Monday
1945,25.227112056790276
3320,248596510.80904186
2,12,11,15, 0,22, 0.00,60.00,Monday
1945,24.92074828052095
3320,209775224.98108104
2,12,11,15, 0,23, 0.00,60.00,Monday
1945,24.690983310647308
3320,183964551.77205113
2,12,11,15, 0,24, 0.00,60.00,Monday
1945,26.74391904278067
3320,72563947.72384587
2,13,11,16, 0, 1, 0.00,60.00,Tuesday
1945,24.241596940224884
3320,143850418.43059963
2,13,11,16, 0, 2, 0.00,60.00,Tuesday
1945,26.374793496051325
3320,58339223.497174956
2,13,11,16, 0, 3, 0.00,60.00,Tuesday
1945,24.231779282456337
3320,143404990.81082597
2,13,11,16, 0, 4, 0.00,60.00,Tuesday
1945,26.178478193548678
3320,58339004.113736175
2,13,11,16, 0, 5, 0.00,60.00,Tuesday
1945,24.198516514802144
3320,142835104.78564757
2,13,11,16, 0, 6, 0.00,60.00,Tuesday
1945,26.07156280707179
3320,58339004.11373619
2,13,11,16, 0, 7, 0.00,60.00,Tuesday
1945,24.154375033765426
3320,141765010.6170021
2,13,11,16, 0, 8, 0.00,60.00,Tuesday
1945,24.004897091793477
3320,181281708.82879633
2,13,11,16, 0, 9, 0.00,60.00,Tuesday
1945,24.861213931407697
3320,352546298.04335
2,13,11,16, 0,10, 0.00,60.00,Tuesday
1945,25.348879363114385
3320,375174675.5980438
2,13,11,16, 0,11, 0.00,60.00,Tuesday
1945,25.847944204159113
3320,384399180.87037635
2,13,11,16, 0,12, 0.00,60.00,Tuesday
1945,25.993148866693737
3320,397781504.9014411
2,13,11,16, 0,13, 0.00,60.00,Tuesday
1945,25.70241807460545
3320,369800126.16069674
2,13,11,16, 0,14, 0.00,60.00,Tuesday
1945,26.320575709808068
3320,410629696.3997202
2,13,11,16, 0,15, 0.00,60.00,Tuesday
1945,26.22281961514619
3320,410794063.99403924
2,13,11,16, 0,16, 0.00,60.00,Tuesday
1945,26.07335510326204
3320,412531225.1922795
2,13,11,16, 0,17, 0.00,60.00,Tuesday
1945,25.696010036866117
3320,404451211.0704073
2,13,11,16, 0,18, 0.00,60.00,Tuesday
1945,24.98111757338332
3320,279450786.93774354
2,13,11,16, 0,19, 0.00,60.00,Tuesday
1945,24.551592817608423
3320,232364357.0945926
2,13,11,16, 0,20, 0.00,60.00,Tuesday
1945,24.35711369897213
3320,215843211.1767105
2,13,11,16, 0,21, 0.00,60.00,Tuesday
1945,24.13318546367651
3320,188932597.2833003
2,13,11,16, 0,22, 0.00,60.00,Tuesday
1945,24.018267444022264
3320,182518125.77026623
2,13,11,16, 0,23, 0.00,60.00,Tuesday
1945,24.324585431913682
3320,156333652.47841814
2,13,11,16, 0,24, 0.00,60.00,Tuesday
1945,25.868105336045012
3320,72563947.72384587
2,14,11,17, 0, 1, 0.00,60.00,Wednesday
1945,24.187189156995363
3320,141536419.9336461
2,14,11,17, 0, 2, 0.00,60.00,Wednesday
1945,25.729744081840302
3320,58339223.49717496
2,14,11,17, 0, 3, 0.00,60.00,Wednesday
1945,24.117864139532042
3320,143333781.3393658
2,14,11,17, 0, 4, 0.00,60.00,Wednesday
1945,25.61815272526396
3320,58339004.11373618
2,14,11,17, 0, 5, 0.00,60.00,Wednesday
1945,24.041770103787677
3320,130957453.88373989
2,14,11,17, 0, 6, 0.00,60.00,Wednesday
1945,25.44015680587853
3320,58339004.11373618
2,14,11,17, 0, 7, 0.00,60.00,Wednesday
1945,24.028313071439484
3320,131659789.30117376
2,14,11,17, 0, 8, 0.00,60.00,Wednesday
1945,23.99924587630587
3320,153312416.5071914
2,14,11,17, 0, 9, 0.00,60.00,Wednesday
1945,24.62239068327439
3320,348196776.914863
2,14,11,17, 0,10, 0.00,60.00,Wednesday
1945,25.441681100125134
3320,397771806.9928179
2,14,11,17, 0,11, 0.00,60.00,Wednesday
1945,25.984485138994742
3320,400603952.2365224
2,14,11,17, 0,12, 0.00,60.00,Wednesday
1945,26.30600961865352
3320,414931021.5419624
2,14,11,17, 0,13, 0.00,60.00,Wednesday
1945,27.5577095156059
3320,392589497.27113175
2,14,11,17, 0,14, 0.00,60.00,Wednesday
1945,26.857535585580777
3320,425671952.80610937
2,14,11,17, 0,15, 0.00,60.00,Wednesday
1945,26.816874768666807
3320,424944455.95092916
2,14,11,17, 0,16, 0.00,60.00,Wednesday
1945,26.59867602114718
3320,421888472.84378237
2,14,11,17, 0,17, 0.00,60.00,Wednesday
1945,26.98920460879272
3320,430880552.3828716
2,14,11,17, 0,18, 0.00,60.00,Wednesday
1945,27.067744761894467
3320,335416432.923443
2,14,11,17, 0,19, 0.00,60.00,Wednesday
1945,24.807445293787868
3320,287905341.7692229
2,14,11,17, 0,20, 0.00,60.00,Wednesday
1945,24.649475394144908
3320,240502044.71222538
2,14,11,17, 0,21, 0.00,60.00,Wednesday
1945,24.396617048254512
3320,208188853.72516406
2,14,11,17, 0,22, 0.00,60.00,Wednesday
1945,24.141828194254227
3320,188989995.23954424
2,14,11,17, 0,23, 0.00,60.00,Wednesday
1945,24.472146627033684
3320,164550718.2576684
2,14,11,17, 0,24, 0.00,60.00,Wednesday
1945,25.969135624133592
3320,72563947.72384587
2,15,11,18, 0, 1, 0.00,60.00,Thursday
1945,24.151159207905792
3320,144489371.67212343
2,15,11,18, 0, 2, 0.00,60.00,Thursday
1945,25.78405441189696
3320,58339223.49717496
2,15,11,18, 0, 3, 0.00,60.00,Thursday
1945,24.10429541339953
3320,142889923.28032246
2,15,11,18, 0, 4, 0.00,60.00,Thursday
1945,25.602647228960596
3320,58339004.11373618
2,15,11,18, 0, 5, 0.00,60.00,Thursday
1945,24.038083620045217
3320,132916943.4590565
2,15,11,18, 0, 6, 0.00,60.00,Thursday
1945,25.451870285006635
3320,58339004.11373618
2,15,11,18, 0, 7, 0.00,60.00,Thursday
1945,24.02859831599654
3320,131920091.4597804
2,15,11,18, 0, 8, 0.00,60.00,Thursday
1945,23.999729405811408
3320,158058170.93261006
2,15,11,18, 0, 9, 0.00,60.00,Thursday
1945,24.5659447734744
3320,351613305.1168559
2,15,11,18, 0,10, 0.00,60.00,Thursday
1945,25.340600982117294
3320,374573607.19166267
2,15,11,18, 0,11, 0.00,60.00,Thursday
1945,26.11224206178791
3320,396797364.1699363
2,15,11,18, 0,12, 0.00,60.00,Thursday
1945,26.750005025783096
3320,415068890.61438024
2,15,11,18, 0,13, 0.00,60.00,Thursday
1945,27.670034490986545