Program Version,EnergyPlus, Version 23.1.0-87ed9199d4, YMD=2026.02.18 00:21
1,5,Environment Title[],Latitude[deg],Longitude[deg],Time Zone[],Elevation[m]
2,8,Day of Simulation[],Month[],Day of Month[],DST Indicator[1=yes 0=no],Hour[],StartMinute[],EndMinute[],DayType
3,5,Cumulative Day of Simulation[],Month[],Day of Month[],DST Indicator[1=yes 0=no],DayType  ! When Daily Meters Requested
4,2,Cumulative Days of Simulation[],Month[]  ! When Monthly Meters Requested
5,1,Cumulative Days of Simulation[] ! When Run Period Meters Requested
6,1,Calendar Year of Simulation[] ! When Annual Meters Requested
135,1,Electricity:Facility [J] !Hourly
3420,1,ElectricityNet:Facility [J] !Hourly
End of Data Dictionary
1,RUNPERIOD 1,  -2.16, -79.88,  -5.00,   5.80
2,1,10, 7, 1, 1, 0.00,60.00,Thursday
135,131743588.91088924
3420,131743588.91088924
2,1,10, 7, 1, 2, 0.00,60.00,Thursday
135,123273971.95185658
3420,123273971.95185658
2,1,10, 7, 1, 3, 0.00,60.00,Thursday
135,104899973.30391145
3420,104899973.30391143
2,1,10, 7, 1, 4, 0.00,60.00,Thursday
135,129827783.72596732
3420,129827783.72596732
2,1,10, 7, 1, 5, 0.00,60.00,Thursday
135,115290706.42256427
3420,115290706.42256425
2,1,10, 7, 1, 6, 0.00,60.00,Thursday
135,152113569.67440236
3420,152113569.67440236
2,1,10, 7, 1, 7, 0.00,60.00,Thursday
135,157090313.39028004
3420,157090313.39028007
2,1,10, 7, 1, 8, 0.00,60.00,Thursday
135,333841796.74794745
3420,333841796.74794745
2,1,10, 7, 1, 9, 0.00,60.00,Thursday
135,362237312.5955574
3420,362237312.5955574
2,1,10, 7, 1,10, 0.00,60.00,Thursday
135,405005811.0020791
3420,405005811.0020792
2,1,10, 7, 1,11, 0.00,60.00,Thursday
135,419093754.04973507
3420,419093754.04973507
2,1,10, 7, 1,12, 0.00,60.00,Thursday
135,398627210.75916934
3420,398627210.75916934
2,1,10, 7, 1,13, 0.00,60.00,Thursday
135,425616588.4953188
3420,425616588.4953188
2,1,10, 7, 1,14, 0.00,60.00,Thursday
135,427715879.97706664
3420,427715879.9770667
2,1,10, 7, 1,15, 0.00,60.00,Thursday
135,432213974.7987562
3420,432213974.7987562
2,1,10, 7, 1,16, 0.00,60.00,Thursday
135,437677531.3271358
3420,437677531.3271359
2,1,10, 7, 1,17, 0.00,60.00,Thursday
135,351614196.2611894
3420,351614196.2611894
2,1,10, 7, 1,18, 0.00,60.00,Thursday
135,321280447.6432718
3420,321280447.6432718
2,1,10, 7, 1,19, 0.00,60.00,Thursday
135,312120547.27008325
3420,312120547.2700833
2,1,10, 7, 1,20, 0.00,60.00,Thursday
135,256247239.20308918
3420,256247239.20308918
2,1,10, 7, 1,21, 0.00,60.00,Thursday
135,215161804.66881198
3420,215161804.66881198
2,1,10, 7, 1,22, 0.00,60.00,Thursday
135,160120603.71728298
3420,160120603.71728298
2,1,10, 7, 1,23, 0.00,60.00,Thursday
135,147017889.1031491
3420,147017889.10314912
2,1,10, 7, 1,24, 0.00,60.00,Thursday
135,103534292.98683926
3420,103534292.98683926
2,2,10, 8, 1, 1, 0.00,60.00,Friday
135,129447233.20035046
3420,129447233.20035048
2,2,10, 8, 1, 2, 0.00,60.00,Friday
135,122110069.88571721
3420,122110069.88571721
2,2,10, 8, 1, 3, 0.00,60.00,Friday
135,97942850.78414631
3420,97942850.78414631
2,2,10, 8, 1, 4, 0.00,60.00,Friday
135,123566682.53064278
3420,123566682.53064275
2,2,10, 8, 1, 5, 0.00,60.00,Friday
135,109435921.01380059
3420,109435921.01380059
2,2,10, 8, 1, 6, 0.00,60.00,Friday
135,144510051.3945259
3420,144510051.3945259
2,2,10, 8, 1, 7, 0.00,60.00,Friday
135,148687782.94892657
3420,148687782.94892657
2,2,10, 8, 1, 8, 0.00,60.00,Friday
135,311482614.55443895
3420,311482614.55443895
2,2,10, 8, 1, 9, 0.00,60.00,Friday
135,339821130.910194
3420,339821130.91019404
2,2,10, 8, 1,10, 0.00,60.00,Friday
135,365963268.6432166
3420,365963268.6432166
2,2,10, 8, 1,11, 0.00,60.00,Friday
135,384815898.6640576
3420,384815898.6640576
2,2,10, 8, 1,12, 0.00,60.00,Friday
135,385394082.8065856
3420,385394082.80658567
2,2,10, 8, 1,13, 0.00,60.00,Friday
135,418611707.2710112
3420,418611707.2710112
2,2,10, 8, 1,14, 0.00,60.00,Friday
135,419974543.5175276
3420,419974543.5175276
2,2,10, 8, 1,15, 0.00,60.00,Friday
135,425690972.2234586
3420,425690972.2234585
2,2,10, 8, 1,16, 0.00,60.00,Friday
135,427465861.00260663
3420,427465861.00260663
2,2,10, 8, 1,17, 0.00,60.00,Friday
135,322762150.4975395
3420,322762150.4975395
2,2,10, 8, 1,18, 0.00,60.00,Friday
135,278868524.04155624
3420,278868524.0415562
2,2,10, 8, 1,19, 0.00,60.00,Friday
135,266999328.50503212
3420,266999328.50503212
2,2,10, 8, 1,20, 0.00,60.00,Friday
135,221107888.27222747
3420,221107888.27222747
2,2,10, 8, 1,21, 0.00,60.00,Friday
135,200101232.2048089
3420,200101232.2048089
2,2,10, 8, 1,22, 0.00,60.00,Friday
135,151868211.9626838
3420,151868211.9626838
2,2,10, 8, 1,23, 0.00,60.00,Friday
135,143861011.65248603
3420,143861011.65248603
2,2,10, 8, 1,24, 0.00,60.00,Friday
135,92442286.02023491
3420,92442286.02023493
2,3,10, 9, 1, 1, 0.00,60.00,Saturday
135,119737114.35298803
3420,119737114.352988
2,3,10, 9, 1, 2, 0.00,60.00,Saturday
135,107024280.34216058
3420,107024280.3421606
2,3,10, 9, 1, 3, 0.00,60.00,Saturday
135,89749855.21876849
3420,89749855.21876849
2,3,10, 9, 1, 4, 0.00,60.00,Saturday
135,114712227.12795748
3420,114712227.12795746
2,3,10, 9, 1, 5, 0.00,60.00,Saturday
135,106374194.49480341
3420,106374194.4948034
2,3,10, 9, 1, 6, 0.00,60.00,Saturday
135,150785995.53256023
3420,150785995.53256023
2,3,10, 9, 1, 7, 0.00,60.00,Saturday
135,129313995.84340471
3420,129313995.84340471
2,3,10, 9, 1, 8, 0.00,60.00,Saturday
135,178842914.5519081
3420,178842914.55190814
2,3,10, 9, 1, 9, 0.00,60.00,Saturday
135,193128092.27258348
3420,193128092.27258348
2,3,10, 9, 1,10, 0.00,60.00,Saturday
135,212932759.9289826
3420,212932759.92898262
2,3,10, 9, 1,11, 0.00,60.00,Saturday
135,236976037.25450945
3420,236976037.2545094
2,3,10, 9, 1,12, 0.00,60.00,Saturday
135,212125897.5992821
3420,212125897.5992821
2,3,10, 9, 1,13, 0.00,60.00,Saturday
135,218422115.98861012
3420,218422115.98861012
2,3,10, 9, 1,14, 0.00,60.00,Saturday
135,227997481.58741754
3420,227997481.58741754
2,3,10, 9, 1,15, 0.00,60.00,Saturday
135,237163634.6158858
3420,237163634.61588576
2,3,10, 9, 1,16, 0.00,60.00,Saturday
135,254259452.03383815
3420,254259452.03383812
2,3,10, 9, 1,17, 0.00,60.00,Saturday
135,233630095.03796536
3420,233630095.03796536
2,3,10, 9, 1,18, 0.00,60.00,Saturday
135,192659450.5903881
3420,192659450.5903881
2,3,10, 9, 1,19, 0.00,60.00,Saturday
135,199114785.81189144
3420,199114785.81189144
2,3,10, 9, 1,20, 0.00,60.00,Saturday
135,123243326.4954401
3420,123243326.49544007
2,3,10, 9, 1,21, 0.00,60.00,Saturday
135,137636535.19369018
3420,137636535.19369018
2,3,10, 9, 1,22, 0.00,60.00,Saturday
135,122066407.29866481
3420,122066407.29866482
2,3,10, 9, 1,23, 0.00,60.00,Saturday
135,95352214.7632762
3420,95352214.7632762
2,3,10, 9, 1,24, 0.00,60.00,Saturday
135,114324178.5968429
3420,114324178.5968429
2,4,10,10, 1, 1, 0.00,60.00,Sunday
135,104727416.08722962
3420,104727416.08722961
2,4,10,10, 1, 2, 0.00,60.00,Sunday
135,84440741.196105
3420,84440741.19610499
2,4,10,10, 1, 3, 0.00,60.00,Sunday
135,111012342.24065295
3420,111012342.24065296
2,4,10,10, 1, 4, 0.00,60.00,Sunday
135,105892907.59650968
3420,105892907.59650971
2,4,10,10, 1, 5, 0.00,60.00,Sunday
135,90170353.06967556
3420,90170353.06967556
2,4,10,10, 1, 6, 0.00,60.00,Sunday
135,130257929.6001828
3420,130257929.60018279
2,4,10,10, 1, 7, 0.00,60.00,Sunday
135,103921964.85369718
3420,103921964.85369718
2,4,10,10, 1, 8, 0.00,60.00,Sunday
135,90657027.5088843
3420,90657027.50888431
2,4,10,10, 1, 9, 0.00,60.00,Sunday
135,125416737.03879502
3420,125416737.03879501
2,4,10,10, 1,10, 0.00,60.00,Sunday
135,153682583.42405295
3420,153682583.42405295
2,4,10,10, 1,11, 0.00,60.00,Sunday
135,125457835.7096878
3420,125457835.70968778
2,4,10,10, 1,12, 0.00,60.00,Sunday
135,166646962.24457362
3420,166646962.24457362
2,4,10,10, 1,13, 0.00,60.00,Sunday
135,167032646.18365976
3420,167032646.18365976
2,4,10,10, 1,14, 0.00,60.00,Sunday
135,132376647.14500076
3420,132376647.14500077
2,4,10,10, 1,15, 0.00,60.00,Sunday
135,184814945.86155707
3420,184814945.86155707
2,4,10,10, 1,16, 0.00,60.00,Sunday
135,195713945.68421656
3420,195713945.6842166
2,4,10,10, 1,17, 0.00,60.00,Sunday
135,138963292.27654135
3420,138963292.27654135
2,4,10,10, 1,18, 0.00,60.00,Sunday
135,187614630.74323624
3420,187614630.74323627
2,4,10,10, 1,19, 0.00,60.00,Sunday
135,202008787.36676952
3420,202008787.3667695
2,4,10,10, 1,20, 0.00,60.00,Sunday
135,132041343.32831605
3420,132041343.32831606
2,4,10,10, 1,21, 0.00,60.00,Sunday
135,147484623.47208732
3420,147484623.47208732
2,4,10,10, 1,22, 0.00,60.00,Sunday
135,122959701.22686464
3420,122959701.22686464
2,4,10,10, 1,23, 0.00,60.00,Sunday
135,91779355.38560076
3420,91779355.38560073
2,4,10,10, 1,24, 0.00,60.00,Sunday
135,110867912.88193505
3420,110867912.88193505
2,5,10,11, 1, 1, 0.00,60.00,Holiday
135,105508285.66719514
3420,105508285.66719514
2,5,10,11, 1, 2, 0.00,60.00,Holiday
135,87768301.99509512
3420,87768301.99509512
2,5,10,11, 1, 3, 0.00,60.00,Holiday
135,109511518.5661678
3420,109511518.5661678
2,5,10,11, 1, 4, 0.00,60.00,Holiday
135,105422268.78322434
3420,105422268.78322433
2,5,10,11, 1, 5, 0.00,60.00,Holiday
135,89324807.95925157
3420,89324807.95925157
2,5,10,11, 1, 6, 0.00,60.00,Holiday
135,141825087.40928963
3420,141825087.40928963
2,5,10,11, 1, 7, 0.00,60.00,Holiday
135,110693357.96677074
3420,110693357.96677074
2,5,10,11, 1, 8, 0.00,60.00,Holiday
135,89589997.82002516
3420,89589997.82002518
2,5,10,11, 1, 9, 0.00,60.00,Holiday
135,124667924.76599474
3420,124667924.76599477
2,5,10,11, 1,10, 0.00,60.00,Holiday
135,136516119.02209437
3420,136516119.02209437
2,5,10,11, 1,11, 0.00,60.00,Holiday
135,113822953.33941382
3420,113822953.33941384
2,5,10,11, 1,12, 0.00,60.00,Holiday
135,158506073.03548786
3420,158506073.0354879
2,5,10,11, 1,13, 0.00,60.00,Holiday
135,167692879.65405643
3420,167692879.65405643
2,5,10,11, 1,14, 0.00,60.00,Holiday
135,132701514.61396581
3420,132701514.61396582
2,5,10,11, 1,15, 0.00,60.00,Holiday
135,186353971.75160688
3420,186353971.75160688
2,5,10,11, 1,16, 0.00,60.00,Holiday
135,191273057.68701854
3420,191273057.68701857
2,5,10,11, 1,17, 0.00,60.00,Holiday
135,147475345.86030817
3420,147475345.8603082
2,5,10,11, 1,18, 0.00,60.00,Holiday
135,197436231.7527842
3420,197436231.7527842
2,5,10,11, 1,19, 0.00,60.00,Holiday
135,185415973.74663886
3420,185415973.74663883
2,5,10,11, 1,20, 0.00,60.00,Holiday
135,121174961.91713487
3420,121174961.91713487
2,5,10,11, 1,21, 0.00,60.00,Holiday
135,140102059.72369966
3420,140102059.72369966
2,5,10,11, 1,22, 0.00,60.00,Holiday
135,119830142.22233906
3420,119830142.22233906
2,5,10,11, 1,23, 0.00,60.00,Holiday
135,94798552.22353642
3420,94798552.22353642
2,5,10,11, 1,24, 0.00,60.00,Holiday
135,126188027.36240941
3420,126188027.36240938
2,6,10,12, 1, 1, 0.00,60.00,Tuesday
135,112699232.65615433
3420,112699232.65615433
2,6,10,12, 1, 2, 0.00,60.00,Tuesday
135,97720176.64658564
3420,97720176.64658564
2,6,10,12, 1, 3, 0.00,60.00,Tuesday
135,122786090.63977578
3420,122786090.63977575
2,6,10,12, 1, 4, 0.00,60.00,Tuesday
135,111490362.41051415
3420,111490362.41051415
2,6,10,12, 1, 5, 0.00,60.00,Tuesday
135,96182695.9794006
3420,96182695.97940058
2,6,10,12, 1, 6, 0.00,60.00,Tuesday
135,149499488.04797333
3420,149499488.04797333
2,6,10,12, 1, 7, 0.00,60.00,Tuesday
135,143826712.31267563
3420,143826712.31267565
2,6,10,12, 1, 8, 0.00,60.00,Tuesday
135,297383895.898194
3420,297383895.8981941
2,6,10,12, 1, 9, 0.00,60.00,Tuesday
135,317200191.8428777
3420,317200191.8428777
2,6,10,12, 1,10, 0.00,60.00,Tuesday
135,332038384.7691943
3420,332038384.76919436
2,6,10,12, 1,11, 0.00,60.00,Tuesday
135,354553423.6389699
3420,354553423.63896996
2,6,10,12, 1,12, 0.00,60.00,Tuesday
135,334194739.77411216
3420,334194739.77411216
2,6,10,12, 1,13, 0.00,60.00,Tuesday
135,364543452.53856486
3420,364543452.5385649
2,6,10,12, 1,14, 0.00,60.00,Tuesday
135,380016296.7376257
3420,380016296.7376257
2,6,10,12, 1,15, 0.00,60.00,Tuesday
135,374515677.3333752
3420,374515677.3333752
2,6,10,12, 1,16, 0.00,60.00,Tuesday
135,384860602.8507851
3420,384860602.8507851
2,6,10,12, 1,17, 0.00,60.00,Tuesday
135,260975582.03153858
3420,260975582.03153858
2,6,10,12, 1,18, 0.00,60.00,Tuesday
135,208398061.14683503
3420,208398061.14683503
2,6,10,12, 1,19, 0.00,60.00,Tuesday
135,199016589.68382692
3420,199016589.68382695
2,6,10,12, 1,20, 0.00,60.00,Tuesday
135,175386732.6754846
3420,175386732.6754846
2,6,10,12, 1,21, 0.00,60.00,Tuesday
135,167373744.5858115
3420,167373744.58581153
2,6,10,12, 1,22, 0.00,60.00,Tuesday
135,143612355.17548665
3420,143612355.17548668
2,6,10,12, 1,23, 0.00,60.00,Tuesday
135,131683201.61493915
3420,131683201.61493912
2,6,10,12, 1,24, 0.00,60.00,Tuesday
135,103510414.17327374
3420,103510414.17327374
2,7,10,13, 1, 1, 0.00,60.00,Wednesday
135,132085338.61585218
3420,132085338.61585215
2,7,10,13, 1, 2, 0.00,60.00,Wednesday
135,120585342.59514353
3420,120585342.59514351
2,7,10,13, 1, 3, 0.00,60.00,Wednesday
135,96688393.355901
3420,96688393.35590099
2,7,10,13, 1, 4, 0.00,60.00,Wednesday
135,116684195.40159845
3420,116684195.40159845
2,7,10,13, 1, 5, 0.00,60.00,Wednesday
135,117624666.5428005
3420,117624666.54280047
2,7,10,13, 1, 6, 0.00,60.00,Wednesday
135,139436918.88794285
3420,139436918.88794285
2,7,10,13, 1, 7, 0.00,60.00,Wednesday
135,147430637.5903117
3420,147430637.5903117
2,7,10,13, 1, 8, 0.00,60.00,Wednesday
135,281261163.0022443
3420,281261163.0022443
2,7,10,13, 1, 9, 0.00,60.00,Wednesday
135,294088618.3103314
3420,294088618.3103314
2,7,10,13, 1,10, 0.00,60.00,Wednesday
135,303161583.27694327
3420,303161583.27694327
2,7,10,13, 1,11, 0.00,60.00,Wednesday
135,321148201.4017012
3420,321148201.4017012
2,7,10,13, 1,12, 0.00,60.00,Wednesday
135,329956237.0722018
3420,329956237.0722018
2,7,10,13, 1,13, 0.00,60.00,Wednesday
135,378999816.35697305
3420,378999816.356973
2,7,10,13, 1,14, 0.00,60.00,Wednesday
135,410303841.96565425
3420,410303841.96565425
2,7,10,13, 1,15, 0.00,60.00,Wednesday
135,426115509.2341493
3420,426115509.2341493
2,7,10,13, 1,16, 0.00,60.00,Wednesday
135,419355960.5220877
3420,419355960.5220877
2,7,10,13, 1,17, 0.00,60.00,Wednesday
135,319534711.4994035
3420,319534711.4994035
2,7,10,13, 1,18, 0.00,60.00,Wednesday
135,295932788.97205865
3420,295932788.97205865
2,7,10,13, 1,19, 0.00,60.00,Wednesday
135,282091847.8124531
3420,282091847.81245303
2,7,10,13, 1,20, 0.00,60.00,Wednesday
135,229236062.3988761
3420,229236062.3988761
2,7,10,13, 1,21, 0.00,60.00,Wednesday
135,199385364.7067883
3420,199385364.7067883
2,7,10,13, 1,22, 0.00,60.00,Wednesday
135,153832712.36977106
3420,153832712.36977106
2,7,10,13, 1,23, 0.00,60.00,Wednesday
135,140204022.48223978
3420,140204022.48223978
2,7,10,13, 1,24, 0.00,60.00,Wednesday
135,103506693.25048807
3420,103506693.25048804
2,8,10,14, 1, 1, 0.00,60.00,Thursday
135,126620276.46712783
3420,126620276.46712783
2,8,10,14, 1, 2, 0.00,60.00,Thursday
135,118254968.17519872
3420,118254968.17519872
2,8,10,14, 1, 3, 0.00,60.00,Thursday
135,101184494.8634358
3420,101184494.8634358
2,8,10,14, 1, 4, 0.00,60.00,Thursday
135,125794237.16877386
3420,125794237.16877386
2,8,10,14, 1, 5, 0.00,60.00,Thursday
135,126159944.03297496
3420,126159944.03297493
2,8,10,14, 1, 6, 0.00,60.00,Thursday
135,139352882.85611564
3420,139352882.8561156
2,8,10,14, 1, 7, 0.00,60.00,Thursday
135,142071708.54050386
3420,142071708.54050386
2,8,10,14, 1, 8, 0.00,60.00,Thursday
135,290727352.61328006
3420,290727352.61328006
2,8,10,14, 1, 9, 0.00,60.00,Thursday
135,306059428.6904849
3420,306059428.6904849
2,8,10,14, 1,10, 0.00,60.00,Thursday
135,330514928.58558005
3420,330514928.5855801
2,8,10,14, 1,11, 0.00,60.00,Thursday
135,360833012.1650497
3420,360833012.1650497
2,8,10,14, 1,12, 0.00,60.00,Thursday
135,336654607.7663741
3420,336654607.7663742
2,8,10,14, 1,13, 0.00,60.00,Thursday
135,384738693.2827463
3420,384738693.2827463
2,8,10,14, 1,14, 0.00,60.00,Thursday
135,404274879.5718689
3420,404274879.571869
2,8,10,14, 1,15, 0.00,60.00,Thursday
135,422765827.2486031
3420,422765827.24860305
2,8,10,14, 1,16, 0.00,60.00,Thursday
135,420943335.7496951
3420,420943335.7496952
2,8,10,14, 1,17, 0.00,60.00,Thursday
135,310613164.6695398
3420,310613164.6695398
2,8,10,14, 1,18, 0.00,60.00,Thursday
135,288548274.5502523
3420,288548274.5502523
2,8,10,14, 1,19, 0.00,60.00,Thursday
135,279354874.0173795
3420,279354874.0173796
2,8,10,14, 1,20, 0.00,60.00,Thursday
135,226439195.0753546
3420,226439195.0753546
2,8,10,14, 1,21, 0.00,60.00,Thursday
135,206573496.05982235
3420,206573496.0598224
2,8,10,14, 1,22, 0.00,60.00,Thursday
135,163550948.5562532
3420,163550948.5562532
2,8,10,14, 1,23, 0.00,60.00,Thursday
135,154569382.2055377
3420,154569382.20553774
2,8,10,14, 1,24, 0.00,60.00,Thursday
135,102120882.83966118
3420,102120882.83966118
2,9,10,15, 1, 1, 0.00,60.00,Friday
135,123929486.99103567
3420,123929486.99103567
2,9,10,15, 1, 2, 0.00,60.00,Friday
135,119213239.98815437
3420,119213239.98815435
2,9,10,15, 1, 3, 0.00,60.00,Friday
135,98043065.83959743
3420,98043065.8395974
2,9,10,15, 1, 4, 0.00,60.00,Friday
135,123373957.27389193
3420,123373957.27389193
2,9,10,15, 1, 5, 0.00,60.00,Friday
135,118828547.79549852
3420,118828547.79549852
2,9,10,15, 1, 6, 0.00,60.00,Friday
135,142841858.54729497
3420,142841858.54729497
2,9,10,15, 1, 7, 0.00,60.00,Friday
135,145602845.49766916
3420,145602845.49766916
2,9,10,15, 1, 8, 0.00,60.00,Friday
135,295029536.81426495
3420,295029536.814265
2,9,10,15, 1, 9, 0.00,60.00,Friday
135,327832777.09954715
3420,327832777.0995471
2,9,10,15, 1,10, 0.00,60.00,Friday
135,366423333.8524797
3420,366423333.8524797
2,9,10,15, 1,11, 0.00,60.00,Friday
135,379674545.7417041
3420,379674545.7417041
2,9,10,15, 1,12, 0.00,60.00,Friday
135,371930589.262813
3420,371930589.26281303
2,9,10,15, 1,13, 0.00,60.00,Friday
135,410228282.08243823
3420,410228282.08243835
2,9,10,15, 1,14, 0.00,60.00,Friday
135,419327072.2050168
3420,419327072.20501685
2,9,10,15, 1,15, 0.00,60.00,Friday
135,433036836.0201175
3420,433036836.0201175
2,9,10,15, 1,16, 0.00,60.00,Friday
135,431190409.1395677
3420,431190409.1395677
2,9,10,15, 1,17, 0.00,60.00,Friday
135,300853466.95500964
3420,300853466.95500964
2,9,10,15, 1,18, 0.00,60.00,Friday
135,261506669.13222283
3420,261506669.13222283
2,9,10,15, 1,19, 0.00,60.00,Friday
135,243923589.5241816
3420,243923589.5241816
2,9,10,15, 1,20, 0.00,60.00,Friday
135,196693972.51603538
3420,196693972.51603538
2,9,10,15, 1,21, 0.00,60.00,Friday
135,186508722.47034195
3420,186508722.47034198
2,9,10,15, 1,22, 0.00,60.00,Friday
135,151404362.55439258
3420,151404362.55439258
2,9,10,15, 1,23, 0.00,60.00,Friday
135,134873863.7679907
3420,134873863.7679907
2,9,10,15, 1,24, 0.00,60.00,Friday
135,87800956.33110888
3420,87800956.33110888
2,10,10,16, 1, 1, 0.00,60.00,Saturday
135,113162131.38112983
3420,113162131.38112982
2,10,10,16, 1, 2, 0.00,60.00,Saturday
135,107336075.79927203
3420,107336075.79927202
2,10,10,16, 1, 3, 0.00,60.00,Saturday
135,95210701.88370275
3420,95210701.88370275
2,10,10,16, 1, 4, 0.00,60.00,Saturday
135,123092943.64106011
3420,123092943.6410601
2,10,10,16, 1, 5, 0.00,60.00,Saturday
135,115188985.4404316
3420,115188985.4404316
2,10,10,16, 1, 6, 0.00,60.00,Saturday
135,141691008.2615317
3420,141691008.2615317
2,10,10,16, 1, 7, 0.00,60.00,Saturday
135,123149396.82237251
3420,123149396.8223725
2,10,10,16, 1, 8, 0.00,60.00,Saturday
135,163220280.44576192
3420,163220280.44576192
2,10,10,16, 1, 9, 0.00,60.00,Saturday
135,178812368.43808275
3420,178812368.43808275
2,10,10,16, 1,10, 0.00,60.00,Saturday
135,202490845.3002836
3420,202490845.3002836
2,10,10,16, 1,11, 0.00,60.00,Saturday
135,227396044.67128462
3420,227396044.67128465
2,10,10,16, 1,12, 0.00,60.00,Saturday
135,199066180.1115832
3420,199066180.1115832
2,10,10,16, 1,13, 0.00,60.00,Saturday
135,207947535.4514239
3420,207947535.45142388
2,10,10,16, 1,14, 0.00,60.00,Saturday
135,213475053.91398576
3420,213475053.91398576
2,10,10,16, 1,15, 0.00,60.00,Saturday
135,210304702.7416721
3420,210304702.7416721
2,10,10,16, 1,16, 0.00,60.00,Saturday
135,209436055.18472287
3420,209436055.18472284
2,10,10,16, 1,17, 0.00,60.00,Saturday
135,176641458.2488706
3420,176641458.2488706
2,10,10,16, 1,18, 0.00,60.00,Saturday
135,139679654.05791846
3420,139679654.05791846
2,10,10,16, 1,19, 0.00,60.00,Saturday
135,137283620.09694517
3420,137283620.0969452
2,10,10,16, 1,20, 0.00,60.00,Saturday
135,103262261.45974706
3420,103262261.45974706
2,10,10,16, 1,21, 0.00,60.00,Saturday
135,126983652.44641599
3420,126983652.44641599
2,10,10,16, 1,22, 0.00,60.00,Saturday
135,109839626.06832707
3420,109839626.06832707
2,10,10,16, 1,23, 0.00,60.00,Saturday
135,94112434.050353
3420,94112434.05035299
2,10,10,16, 1,24, 0.00,60.00,Saturday
135,124728309.16534638
3420,124728309.16534637
2,11,10,17, 1, 1, 0.00,60.00,Sunday
135,116400052.16776296
3420,116400052.16776294
2,11,10,17, 1, 2, 0.00,60.00,Sunday
135,97595317.14857793
3420,97595317.14857793
2,11,10,17, 1, 3, 0.00,60.00,Sunday
135,108440140.34352976
3420,108440140.34352976
2,11,10,17, 1, 4, 0.00,60.00,Sunday
135,101022613.32214084
3420,101022613.32214084
2,11,10,17, 1, 5, 0.00,60.00,Sunday
135,86861384.27238582
3420,86861384.27238584
2,11,10,17, 1, 6, 0.00,60.00,Sunday
135,113736198.11458299
3420,113736198.11458296
2,11,10,17, 1, 7, 0.00,60.00,Sunday
135,92908197.9535411
3420,92908197.95354109
2,11,10,17, 1, 8, 0.00,60.00,Sunday
135,96966302.6612901
3420,96966302.66129011
2,11,10,17, 1, 9, 0.00,60.00,Sunday
135,114224879.2891445
3420,114224879.28914452
2,11,10,17, 1,10, 0.00,60.00,Sunday
135,129106708.0233879
3420,129106708.02338791
2,11,10,17, 1,11, 0.00,60.00,Sunday
135,114554095.83809254
3420,114554095.83809257
2,11,10,17, 1,12, 0.00,60.00,Sunday
135,133347278.58202171
3420,133347278.58202171
2,11,10,17, 1,13, 0.00,60.00,Sunday
135,145465801.69314414
3420,145465801.69314414
2,11,10,17, 1,14, 0.00,60.00,Sunday
135,134164018.78831811
3420,134164018.78831811
2,11,10,17, 1,15, 0.00,60.00,Sunday
135,146945030.33526495
3420,146945030.33526495
2,11,10,17, 1,16, 0.00,60.00,Sunday
135,159130743.84014314
3420,159130743.84014317
2,11,10,17, 1,17, 0.00,60.00,Sunday
135,141345977.65065384
3420,141345977.6506538
2,11,10,17, 1,18, 0.00,60.00,Sunday
135,136854756.01070145
3420,136854756.01070145
2,11,10,17, 1,19, 0.00,60.00,Sunday
135,150577122.06907654
3420,150577122.06907657
2,11,10,17, 1,20, 0.00,60.00,Sunday
135,115307398.04230459
3420,115307398.04230459
2,11,10,17, 1,21, 0.00,60.00,Sunday
135,123480731.10627107
3420,123480731.10627107
2,11,10,17, 1,22, 0.00,60.00,Sunday
135,123157724.21486562
3420,123157724.21486561
2,11,10,17, 1,23, 0.00,60.00,Sunday
135,97584786.22195747
3420,97584786.22195747
2,11,10,17, 1,24, 0.00,60.00,Sunday
135,120587063.78464887
3420,120587063.78464887
2,12,10,18, 1, 1, 0.00,60.00,Monday
135,121513028.19052559
3420,121513028.19052558
2,12,10,18, 1, 2, 0.00,60.00,Monday
135,107849535.65331624
3420,107849535.65331624
2,12,10,18, 1, 3, 0.00,60.00,Monday
135,122989995.1951671
3420,122989995.1951671
2,12,10,18, 1, 4, 0.00,60.00,Monday
135,112943769.02762951
3420,112943769.02762951
2,12,10,18, 1, 5, 0.00,60.00,Monday
135,104228351.7599669
3420,104228351.75996688
2,12,10,18, 1, 6, 0.00,60.00,Monday
135,150043315.2195355
3420,150043315.21953547
2,12,10,18, 1, 7, 0.00,60.00,Monday
135,144677128.86832482
3420,144677128.86832476
2,12,10,18, 1, 8, 0.00,60.00,Monday
135,303138034.4792437
3420,303138034.4792437
2,12,10,18, 1, 9, 0.00,60.00,Monday
135,335647506.29946876
3420,335647506.29946876
2,12,10,18, 1,10, 0.00,60.00,Monday
135,378799951.8424241
3420,378799951.8424241
2,12,10,18, 1,11, 0.00,60.00,Monday
135,405324065.2858605
3420,405324065.2858605
2,12,10,18, 1,12, 0.00,60.00,Monday
135,382304605.2589968
3420,382304605.25899684
2,12,10,18, 1,13, 0.00,60.00,Monday
135,413215208.1228137
3420,413215208.12281376
2,12,10,18, 1,14, 0.00,60.00,Monday
135,410077910.91642576
3420,410077910.9164258
2,12,10,18, 1,15, 0.00,60.00,Monday
135,416731150.7274766
3420,416731150.7274766
2,12,10,18, 1,16, 0.00,60.00,Monday
135,427240348.39860564
3420,427240348.39860564
2,12,10,18, 1,17, 0.00,60.00,Monday
135,321421500.5787978
3420,321421500.5787978
2,12,10,18, 1,18, 0.00,60.00,Monday
135,275690575.13626164
3420,275690575.1362616
2,12,10,18, 1,19, 0.00,60.00,Monday
135,269694087.84240234
3420,269694087.84240234
2,12,10,18, 1,20, 0.00,60.00,Monday
135,229808116.55462924
3420,229808116.55462924
2,12,10,18, 1,21, 0.00,60.00,Monday
135,212677004.28342935
3420,212677004.28342935
2,12,10,18, 1,22, 0.00,60.00,Monday
135,165953083.85801005
3420,165953083.8580101
2,12,10,18, 1,23, 0.00,60.00,Monday
135,152172585.9715994
3420,152172585.97159937
2,12,10,18, 1,24, 0.00,60.00,Monday
135,106896146.98022312
3420,106896146.98022312
2,13,10,19, 1, 1, 0.00,60.00,Tuesday
135,129786309.317328
3420,129786309.31732799
2,13,10,19, 1, 2, 0.00,60.00,Tuesday
135,112719262.48913723
3420,112719262.48913723
2,13,10,19, 1, 3, 0.00,60.00,Tuesday
135,99209496.73484284
3420,99209496.7348428
2,13,10,19, 1, 4, 0.00,60.00,Tuesday
135,122496940.72825378
3420,122496940.72825378
2,13,10,19, 1, 5, 0.00,60.00,Tuesday
135,121039673.9603941
3420,121039673.9603941
2,13,10,19, 1, 6, 0.00,60.00,Tuesday
135,140336448.3352518
3420,140336448.33525184
2,13,10,19, 1, 7, 0.00,60.00,Tuesday
135,146600841.70500907
3420,146600841.70500907
2,13,10,19, 1, 8, 0.00,60.00,Tuesday
135,316585578.86160994
3420,316585578.86160994
2,13,10,19, 1, 9, 0.00,60.00,Tuesday
135,341587494.2393084
3420,341587494.2393084
2,13,10,19, 1,10, 0.00,60.00,Tuesday
135,360290377.5054714
3420,360290377.5054714
2,13,10,19, 1,11, 0.00,60.00,Tuesday
135,381584202.4794865
3420,381584202.47948647
2,13,10,19, 1,12, 0.00,60.00,Tuesday
135,364602624.2880314
3420,364602624.2880314
2,13,10,19, 1,13, 0.00,60.00,Tuesday
135,404240101.14819515
3420,404240101.14819515
2,13,10,19, 1,14, 0.00,60.00,Tuesday
135,413690564.68605894
3420,413690564.68605894
2,13,10,19, 1,15, 0.00,60.00,Tuesday
135,418691866.7310481
3420,418691866.73104817
2,13,10,19, 1,16, 0.00,60.00,Tuesday
135,423618282.16947687
3420,423618282.16947687
2,13,10,19, 1,17, 0.00,60.00,Tuesday
135,303821380.1394974
3420,303821380.1394974
2,13,10,19, 1,18, 0.00,60.00,Tuesday
135,284555452.943738
3420,284555452.943738
2,13,10,19, 1,19, 0.00,60.00,Tuesday
135,273108545.98888296
3420,273108545.98888296
2,13,10,19, 1,20, 0.00,60.00,Tuesday
135,217036841.97672787
3420,217036841.97672787
2,13,10,19, 1,21, 0.00,60.00,Tuesday
135,193874137.93770456
3420,193874137.93770456
2,13,10,19, 1,22, 0.00,60.00,Tuesday
135,152090426.9901045
3420,152090426.9901045
2,13,10,19, 1,23, 0.00,60.00,Tuesday
135,130933230.11154361
3420,130933230.11154361
2,13,10,19, 1,24, 0.00,60.00,Tuesday
135,100451068.9277513
3420,100451068.92775133
2,14,10,20, 1, 1, 0.00,60.00,Wednesday
135,123984370.55188031
3420,123984370.55188031
2,14,10,20, 1, 2, 0.00,60.00,Wednesday
135,114224084.66846964
3420,114224084.66846962
2,14,10,20, 1, 3, 0.00,60.00,Wednesday
135,98893399.9030473
3420,98893399.90304726
2,14,10,20, 1, 4, 0.00,60.00,Wednesday
135,120649869.74159062
3420,120649869.74159059
2,14,10,20, 1, 5, 0.00,60.00,Wednesday
135,115882056.6681033
3420,115882056.6681033
2,14,10,20, 1, 6, 0.00,60.00,Wednesday
135,140932034.08339807
3420,140932034.0833981
2,14,10,20, 1, 7, 0.00,60.00,Wednesday
135,146495544.4815965
3420,146495544.48159653
2,14,10,20, 1, 8, 0.00,60.00,Wednesday
135,290240364.61303014
3420,290240364.61303014
2,14,10,20, 1, 9, 0.00,60.00,Wednesday
135,303342195.5074159
3420,303342195.50741595
2,14,10,20, 1,10, 0.00,60.00,Wednesday
135,338265159.1810745
3420,338265159.1810745
2,14,10,20, 1,11, 0.00,60.00,Wednesday
135,375583332.69992226
3420,375583332.6999223
2,14,10,20, 1,12, 0.00,60.00,Wednesday
135,364317420.6168648
3420,364317420.61686486
2,14,10,20, 1,13, 0.00,60.00,Wednesday
135,401325475.91869676
3420,401325475.9186969
2,14,10,20, 1,14, 0.00,60.00,Wednesday
135,413708036.21416485
3420,413708036.2141649
2,14,10,20, 1,15, 0.00,60.00,Wednesday
135,417562445.9077434
3420,417562445.90774345
2,14,10,20, 1,16, 0.00,60.00,Wednesday
135,417600752.8600951
3420,417600752.8600951
2,14,10,20, 1,17, 0.00,60.00,Wednesday
135,292552524.5730046
3420,292552524.5730046
2,14,10,20, 1,18, 0.00,60.00,Wednesday
135,270063776.7670404
3420,270063776.7670404
2,14,10,20, 1,19, 0.00,60.00,Wednesday
135,260965505.5723266
3420,260965505.57232654
2,14,10,20, 1,20, 0.00,60.00,Wednesday
135,211291625.31203654
3420,211291625.31203654
2,14,10,20, 1,21, 0.00,60.00,Wednesday
135,190408431.0800936
3420,190408431.0800936
2,14,10,20, 1,22, 0.00,60.00,Wednesday
135,149024214.21754846
3420,149024214.21754846
2,14,10,20, 1,23, 0.00,60.00,Wednesday
135,127346388.60385762
3420,127346388.6038576
2,14,10,20, 1,24, 0.00,60.00,Wednesday
135,98274979.66780841
3420,98274979.66780841
2,15,10,21, 1, 1, 0.00,60.00,Thursday
135,124075714.80870442
3420,124075714.8087044
2,15,10,21, 1, 2, 0.00,60.00,Thursday
135,114928359.66590142
3420,114928359.66590142
2,15,10,21, 1, 3, 0.00,60.00,Thursday
135,97606688.89880967
3420,97606688.89880967
2,15,10,21, 1, 4, 0.00,60.00,Thursday
135,122824895.9784734
3420,122824895.97847335
2,15,10,21, 1, 5, 0.00,60.00,Thursday
135,120413125.36264348
3420,120413125.36264345
2,15,10,21, 1, 6, 0.00,60.00,Thursday
135,138123668.49790668
3420,138123668.49790668
2,15,10,21, 1, 7, 0.00,60.00,Thursday
135,145218339.72085053
3420,145218339.72085053
2,15,10,21, 1, 8, 0.00,60.00,Thursday
135,304547813.9378226
3420,304547813.9378226
2,15,10,21, 1, 9, 0.00,60.00,Thursday
135,328751848.58839285
3420,328751848.58839285
2,15,10,21, 1,10, 0.00,60.00,Thursday
135,375794328.74066997
3420,375794328.74066997
2,15,10,21, 1,11, 0.00,60.00,Thursday
135,395717378.97952425
3420,395717378.9795242
2,15,10,21, 1,12, 0.00,60.00,Thursday
135,367047194.18932766
3420,367047194.18932766
2,15,10,21, 1,13, 0.00,60.00,Thursday
135,409045427.7749056
3420,409045427.7749057
2,15,10,21, 1,14, 0.00,60.00,Thursday
135,418813632.2125638
3420,418813632.2125639
2,15,10,21, 1,15, 0.00,60.00,Thursday
135,414305612.51528317
3420,414305612.51528317
2,15,10,21, 1,16, 0.00,60.00,Thursday
135,420850414.0294787
3420,420850414.0294788
2,15,10,21, 1,17, 0.00,60.00,Thursday
135,301733089.1333087
3420,301733089.1333087
2,15,10,21, 1,18, 0.00,60.00,Thursday