Program Version,EnergyPlus, Version 23.1.0-87ed9199d4, YMD=2026.02.01 14:34
1,5,Environment Title[],Latitude[deg],Longitude[deg],Time Zone[],Elevation[m]
2,8,Day of Simulation[],Month[],Day of Month[],DST Indicator[1=yes 0=no],Hour[],StartMinute[],EndMinute[],DayType
3,5,Cumulative Day of Simulation[],Month[],Day of Month[],DST Indicator[1=yes 0=no],DayType  ! When Daily Meters Requested
4,2,Cumulative Days of Simulation[],Month[]  ! When Monthly Meters Requested
5,1,Cumulative Days of Simulation[] ! When Run Period Meters Requested
6,1,Calendar Year of Simulation[] ! When Annual Meters Requested
135,1,Electricity:Facility [J] !Hourly
3420,1,ElectricityNet:Facility [J] !Hourly
End of Data Dictionary
1,RUNPERIOD 1,  -2.16, -79.88,  -5.00,   5.80
2,1,11, 5, 1, 1, 0.00,60.00,Friday
135,138542219.07031143
3420,138542219.07031143
2,1,11, 5, 1, 2, 0.00,60.00,Friday
135,58339004.11373618
3420,58339004.11373619
2,1,11, 5, 1, 3, 0.00,60.00,Friday
135,141661063.11804184
3420,141661063.1180418
2,1,11, 5, 1, 4, 0.00,60.00,Friday
135,58339004.11373618
3420,58339004.11373619
2,1,11, 5, 1, 5, 0.00,60.00,Friday
135,144647450.57338163
3420,144647450.5733816
2,1,11, 5, 1, 6, 0.00,60.00,Friday
135,141903378.0732386
3420,141903378.07323864
2,1,11, 5, 1, 7, 0.00,60.00,Friday
135,156443660.26589417
3420,156443660.26589417
2,1,11, 5, 1, 8, 0.00,60.00,Friday
135,320486531.1843907
3420,320486531.1843907
2,1,11, 5, 1, 9, 0.00,60.00,Friday
135,348909755.7720943
3420,348909755.77209437
2,1,11, 5, 1,10, 0.00,60.00,Friday
135,375480292.89453167
3420,375480292.8945317
2,1,11, 5, 1,11, 0.00,60.00,Friday
135,405939302.3368299
3420,405939302.3368299
2,1,11, 5, 1,12, 0.00,60.00,Friday
135,368225626.4045466
3420,368225626.4045466
2,1,11, 5, 1,13, 0.00,60.00,Friday
135,415737906.61063325
3420,415737906.61063325
2,1,11, 5, 1,14, 0.00,60.00,Friday
135,416763670.93584514
3420,416763670.9358451
2,1,11, 5, 1,15, 0.00,60.00,Friday
135,420937776.9051463
3420,420937776.9051463
2,1,11, 5, 1,16, 0.00,60.00,Friday
135,420979496.6409792
3420,420979496.6409793
2,1,11, 5, 1,17, 0.00,60.00,Friday
135,318608453.5493122
3420,318608453.5493122
2,1,11, 5, 1,18, 0.00,60.00,Friday
135,300534915.03255576
3420,300534915.0325557
2,1,11, 5, 1,19, 0.00,60.00,Friday
135,275715514.5454886
3420,275715514.5454886
2,1,11, 5, 1,20, 0.00,60.00,Friday
135,235942981.17786705
3420,235942981.17786705
2,1,11, 5, 1,21, 0.00,60.00,Friday
135,208603681.4265012
3420,208603681.42650124
2,1,11, 5, 1,22, 0.00,60.00,Friday
135,182644149.0413977
3420,182644149.04139766
2,1,11, 5, 1,23, 0.00,60.00,Friday
135,72563947.72384587
3420,72563947.72384587
2,1,11, 5, 1,24, 0.00,60.00,Friday
135,134772148.44469056
3420,134772148.4446906
2,2,11, 6, 1, 1, 0.00,60.00,Saturday
135,47088539.76632162
3420,47088539.76632162
2,2,11, 6, 1, 2, 0.00,60.00,Saturday
135,130795806.41481546
3420,130795806.41481544
2,2,11, 6, 1, 3, 0.00,60.00,Saturday
135,47088379.70955594
3420,47088379.70955595
2,2,11, 6, 1, 4, 0.00,60.00,Saturday
135,136312189.25418532
3420,136312189.25418532
2,2,11, 6, 1, 5, 0.00,60.00,Saturday
135,47088379.70955594
3420,47088379.70955594
2,2,11, 6, 1, 6, 0.00,60.00,Saturday
135,154527739.77177963
3420,154527739.7717796
2,2,11, 6, 1, 7, 0.00,60.00,Saturday
135,124771761.37885357
3420,124771761.37885357
2,2,11, 6, 1, 8, 0.00,60.00,Saturday
135,197006725.44924688
3420,197006725.44924688
2,2,11, 6, 1, 9, 0.00,60.00,Saturday
135,217082912.29024735
3420,217082912.29024738
2,2,11, 6, 1,10, 0.00,60.00,Saturday
135,241128456.8861878
3420,241128456.88618773
2,2,11, 6, 1,11, 0.00,60.00,Saturday
135,250921608.10676968
3420,250921608.10676962
2,2,11, 6, 1,12, 0.00,60.00,Saturday
135,230976020.2312585
3420,230976020.23125857
2,2,11, 6, 1,13, 0.00,60.00,Saturday
135,228781337.0691484
3420,228781337.06914836
2,2,11, 6, 1,14, 0.00,60.00,Saturday
135,233491632.3450572
3420,233491632.3450572
2,2,11, 6, 1,15, 0.00,60.00,Saturday
135,239231516.18012384
3420,239231516.18012384
2,2,11, 6, 1,16, 0.00,60.00,Saturday
135,241573906.0609438
3420,241573906.06094378
2,2,11, 6, 1,17, 0.00,60.00,Saturday
135,226669712.20653588
3420,226669712.20653588
2,2,11, 6, 1,18, 0.00,60.00,Saturday
135,229203836.50982177
3420,229203836.50982174
2,2,11, 6, 1,19, 0.00,60.00,Saturday
135,50491177.224665605
3420,50491177.22466561
2,2,11, 6, 1,20, 0.00,60.00,Saturday
135,167994690.04356915
3420,167994690.04356915
2,2,11, 6, 1,21, 0.00,60.00,Saturday
135,49851883.70955594
3420,49851883.70955593
2,2,11, 6, 1,22, 0.00,60.00,Saturday
135,131096534.31141333
3420,131096534.31141333
2,2,11, 6, 1,23, 0.00,60.00,Saturday
135,49851883.70955594
3420,49851883.70955593
2,2,11, 6, 1,24, 0.00,60.00,Saturday
135,131012425.09484793
3420,131012425.09484793
2,3,11, 7, 1, 1, 0.00,60.00,Sunday
135,47088379.70955594
3420,47088379.70955595
2,3,11, 7, 1, 2, 0.00,60.00,Sunday
135,120043358.28752807
3420,120043358.28752807
2,3,11, 7, 1, 3, 0.00,60.00,Sunday
135,47088379.70955594
3420,47088379.70955595
2,3,11, 7, 1, 4, 0.00,60.00,Sunday
135,122674503.27651124
3420,122674503.27651125
2,3,11, 7, 1, 5, 0.00,60.00,Sunday
135,47088379.70955594
3420,47088379.70955595
2,3,11, 7, 1, 6, 0.00,60.00,Sunday
135,149616947.13649908
3420,149616947.13649905
2,3,11, 7, 1, 7, 0.00,60.00,Sunday
135,46598021.62012825
3420,46598021.620128244
2,3,11, 7, 1, 8, 0.00,60.00,Sunday
135,137700931.0618413
3420,137700931.0618413
2,3,11, 7, 1, 9, 0.00,60.00,Sunday
135,45638145.93937316
3420,45638145.93937318
2,3,11, 7, 1,10, 0.00,60.00,Sunday
135,177441945.0126609
3420,177441945.01266092
2,3,11, 7, 1,11, 0.00,60.00,Sunday
135,45638118.19243601
3420,45638118.19243602
2,3,11, 7, 1,12, 0.00,60.00,Sunday
135,208495324.95349675
3420,208495324.95349675
2,3,11, 7, 1,13, 0.00,60.00,Sunday
135,45638118.19243601
3420,45638118.19243602
2,3,11, 7, 1,14, 0.00,60.00,Sunday
135,217824872.67872983
3420,217824872.67872986
2,3,11, 7, 1,15, 0.00,60.00,Sunday
135,45638118.19243602
3420,45638118.19243602
2,3,11, 7, 1,16, 0.00,60.00,Sunday
135,228067608.9920528
3420,228067608.9920528
2,3,11, 7, 1,17, 0.00,60.00,Sunday
135,45638118.19243601
3420,45638118.19243601
2,3,11, 7, 1,18, 0.00,60.00,Sunday
135,223430727.1067539
3420,223430727.1067539
2,3,11, 7, 1,19, 0.00,60.00,Sunday
135,50112538.88893068
3420,50112538.88893068
2,3,11, 7, 1,20, 0.00,60.00,Sunday
135,179234516.90247285
3420,179234516.90247288
2,3,11, 7, 1,21, 0.00,60.00,Sunday
135,49851883.70955594
3420,49851883.709555924
2,3,11, 7, 1,22, 0.00,60.00,Sunday
135,139060146.00286055
3420,139060146.00286058
2,3,11, 7, 1,23, 0.00,60.00,Sunday
135,49851883.70955594
3420,49851883.709555924
2,3,11, 7, 1,24, 0.00,60.00,Sunday
135,151048565.55986363
3420,151048565.55986363
2,4,11, 8, 0, 1, 0.00,60.00,Monday
135,58339004.11373618
3420,58339004.113736175
2,4,11, 8, 0, 2, 0.00,60.00,Monday
135,144820822.37235382
3420,144820822.37235385
2,4,11, 8, 0, 3, 0.00,60.00,Monday
135,58339004.11373618
3420,58339004.113736175
2,4,11, 8, 0, 4, 0.00,60.00,Monday
135,141090650.15374503
3420,141090650.15374503
2,4,11, 8, 0, 5, 0.00,60.00,Monday
135,58339004.11373618
3420,58339004.113736175
2,4,11, 8, 0, 6, 0.00,60.00,Monday
135,143565462.6390124
3420,143565462.6390124
2,4,11, 8, 0, 7, 0.00,60.00,Monday
135,127559263.99553892
3420,127559263.99553892
2,4,11, 8, 0, 8, 0.00,60.00,Monday
135,185594871.43118882
3420,185594871.43118882
2,4,11, 8, 0, 9, 0.00,60.00,Monday
135,362064585.8318868
3420,362064585.8318868
2,4,11, 8, 0,10, 0.00,60.00,Monday
135,384336539.6069701
3420,384336539.6069701
2,4,11, 8, 0,11, 0.00,60.00,Monday
135,397923632.2933049
3420,397923632.29330504
2,4,11, 8, 0,12, 0.00,60.00,Monday
135,411919965.7888724
3420,411919965.7888725
2,4,11, 8, 0,13, 0.00,60.00,Monday
135,390964087.0992786
3420,390964087.0992786
2,4,11, 8, 0,14, 0.00,60.00,Monday
135,416568168.26618546
3420,416568168.26618546
2,4,11, 8, 0,15, 0.00,60.00,Monday
135,421084067.46596974
3420,421084067.46596974
2,4,11, 8, 0,16, 0.00,60.00,Monday
135,421342856.71272755
3420,421342856.7127276
2,4,11, 8, 0,17, 0.00,60.00,Monday
135,421435944.8239786
3420,421435944.82397866
2,4,11, 8, 0,18, 0.00,60.00,Monday
135,339025470.96080047
3420,339025470.9608005
2,4,11, 8, 0,19, 0.00,60.00,Monday
135,309691027.87032396
3420,309691027.870324
2,4,11, 8, 0,20, 0.00,60.00,Monday
135,268427730.65772718
3420,268427730.6577272
2,4,11, 8, 0,21, 0.00,60.00,Monday
135,225450885.08821645
3420,225450885.08821645
2,4,11, 8, 0,22, 0.00,60.00,Monday
135,196639378.36432326
3420,196639378.36432326
2,4,11, 8, 0,23, 0.00,60.00,Monday
135,177642728.7842739
3420,177642728.78427392
2,4,11, 8, 0,24, 0.00,60.00,Monday
135,72563947.72384587
3420,72563947.72384587
2,5,11, 9, 0, 1, 0.00,60.00,Tuesday
135,133528980.34100883
3420,133528980.34100884
2,5,11, 9, 0, 2, 0.00,60.00,Tuesday
135,58339223.49717496
3420,58339223.497174956
2,5,11, 9, 0, 3, 0.00,60.00,Tuesday
135,136785428.07234702
3420,136785428.07234704
2,5,11, 9, 0, 4, 0.00,60.00,Tuesday
135,58339004.11373618
3420,58339004.113736175
2,5,11, 9, 0, 5, 0.00,60.00,Tuesday
135,142691894.66839632
3420,142691894.66839632
2,5,11, 9, 0, 6, 0.00,60.00,Tuesday
135,58339004.11373618
3420,58339004.113736175
2,5,11, 9, 0, 7, 0.00,60.00,Tuesday
135,139191997.0020823
3420,139191997.0020823
2,5,11, 9, 0, 8, 0.00,60.00,Tuesday
135,181602691.99859145
3420,181602691.99859145
2,5,11, 9, 0, 9, 0.00,60.00,Tuesday
135,362866602.7066583
3420,362866602.70665824
2,5,11, 9, 0,10, 0.00,60.00,Tuesday
135,385909890.0828377
3420,385909890.08283776
2,5,11, 9, 0,11, 0.00,60.00,Tuesday
135,396399801.8537827
3420,396399801.8537827
2,5,11, 9, 0,12, 0.00,60.00,Tuesday
135,400102348.81077677
3420,400102348.8107768
2,5,11, 9, 0,13, 0.00,60.00,Tuesday
135,391554985.1344821
3420,391554985.1344821
2,5,11, 9, 0,14, 0.00,60.00,Tuesday
135,412132956.46566564
3420,412132956.4656657
2,5,11, 9, 0,15, 0.00,60.00,Tuesday
135,419917648.76865697
3420,419917648.7686571
2,5,11, 9, 0,16, 0.00,60.00,Tuesday
135,424602615.15642846
3420,424602615.1564285
2,5,11, 9, 0,17, 0.00,60.00,Tuesday
135,421922164.6815846
3420,421922164.6815846
2,5,11, 9, 0,18, 0.00,60.00,Tuesday
135,338314701.0345017
3420,338314701.03450173
2,5,11, 9, 0,19, 0.00,60.00,Tuesday
135,305013640.4411983
3420,305013640.4411983
2,5,11, 9, 0,20, 0.00,60.00,Tuesday
135,266972112.80180264
3420,266972112.80180266
2,5,11, 9, 0,21, 0.00,60.00,Tuesday
135,230179378.4520928
3420,230179378.45209277
2,5,11, 9, 0,22, 0.00,60.00,Tuesday
135,208468314.34362233
3420,208468314.34362233
2,5,11, 9, 0,23, 0.00,60.00,Tuesday
135,182113517.43157688
3420,182113517.43157688
2,5,11, 9, 0,24, 0.00,60.00,Tuesday
135,72563947.72384587
3420,72563947.72384587
2,6,11,10, 0, 1, 0.00,60.00,Wednesday
135,144041473.45162344
3420,144041473.45162344
2,6,11,10, 0, 2, 0.00,60.00,Wednesday
135,58339223.49717496
3420,58339223.497174956
2,6,11,10, 0, 3, 0.00,60.00,Wednesday
135,140821532.87029627
3420,140821532.8702963
2,6,11,10, 0, 4, 0.00,60.00,Wednesday
135,58339004.11373618
3420,58339004.113736175
2,6,11,10, 0, 5, 0.00,60.00,Wednesday
135,135901812.47459945
3420,135901812.47459945
2,6,11,10, 0, 6, 0.00,60.00,Wednesday
135,58339004.11373618
3420,58339004.113736175
2,6,11,10, 0, 7, 0.00,60.00,Wednesday
135,145553182.7064925
3420,145553182.70649254
2,6,11,10, 0, 8, 0.00,60.00,Wednesday
135,191651514.25788417
3420,191651514.2578842
2,6,11,10, 0, 9, 0.00,60.00,Wednesday
135,369978902.98035187
3420,369978902.9803519
2,6,11,10, 0,10, 0.00,60.00,Wednesday
135,397791253.1076375
3420,397791253.1076376
2,6,11,10, 0,11, 0.00,60.00,Wednesday
135,403305235.6775306
3420,403305235.67753065
2,6,11,10, 0,12, 0.00,60.00,Wednesday
135,412160380.25411457
3420,412160380.2541146
2,6,11,10, 0,13, 0.00,60.00,Wednesday
135,401822240.4573889
3420,401822240.4573889
2,6,11,10, 0,14, 0.00,60.00,Wednesday
135,421005753.48267853
3420,421005753.48267853
2,6,11,10, 0,15, 0.00,60.00,Wednesday
135,424559116.55757785
3420,424559116.55757785
2,6,11,10, 0,16, 0.00,60.00,Wednesday
135,427923115.71524554
3420,427923115.7152454
2,6,11,10, 0,17, 0.00,60.00,Wednesday
135,425826500.43314344
3420,425826500.43314344
2,6,11,10, 0,18, 0.00,60.00,Wednesday
135,341828278.3546138
3420,341828278.3546138
2,6,11,10, 0,19, 0.00,60.00,Wednesday
135,320041251.3455142
3420,320041251.3455141
2,6,11,10, 0,20, 0.00,60.00,Wednesday
135,297446975.0401105
3420,297446975.0401105
2,6,11,10, 0,21, 0.00,60.00,Wednesday
135,248032101.95223388
3420,248032101.95223385
2,6,11,10, 0,22, 0.00,60.00,Wednesday
135,220318257.85028017
3420,220318257.85028017
2,6,11,10, 0,23, 0.00,60.00,Wednesday
135,191598291.22887096
3420,191598291.22887096
2,6,11,10, 0,24, 0.00,60.00,Wednesday
135,72563947.72384587
3420,72563947.72384587
2,7,11,11, 0, 1, 0.00,60.00,Holiday
135,137826939.53840825
3420,137826939.53840822
2,7,11,11, 0, 2, 0.00,60.00,Holiday
135,47088539.76632162
3420,47088539.766321614
2,7,11,11, 0, 3, 0.00,60.00,Holiday
135,137671501.1970338
3420,137671501.1970338
2,7,11,11, 0, 4, 0.00,60.00,Holiday
135,47088379.70955594
3420,47088379.70955593
2,7,11,11, 0, 5, 0.00,60.00,Holiday
135,135338536.2031593
3420,135338536.20315933
2,7,11,11, 0, 6, 0.00,60.00,Holiday
135,47088379.70955594
3420,47088379.70955593
2,7,11,11, 0, 7, 0.00,60.00,Holiday
135,133966312.62593006
3420,133966312.62593006
2,7,11,11, 0, 8, 0.00,60.00,Holiday
135,45743164.94784801
3420,45743164.94784801
2,7,11,11, 0, 9, 0.00,60.00,Holiday
135,167910121.34860247
3420,167910121.34860247
2,7,11,11, 0,10, 0.00,60.00,Holiday
135,45638118.19243601
3420,45638118.192436
2,7,11,11, 0,11, 0.00,60.00,Holiday
135,203711218.96399516
3420,203711218.96399513
2,7,11,11, 0,12, 0.00,60.00,Holiday
135,45638118.19243602
3420,45638118.19243602
2,7,11,11, 0,13, 0.00,60.00,Holiday
135,218420355.4394055
3420,218420355.43940544
2,7,11,11, 0,14, 0.00,60.00,Holiday
135,45638118.19243601
3420,45638118.19243601
2,7,11,11, 0,15, 0.00,60.00,Holiday
135,235356229.02622968
3420,235356229.02622968
2,7,11,11, 0,16, 0.00,60.00,Holiday
135,45638118.19243601
3420,45638118.192436
2,7,11,11, 0,17, 0.00,60.00,Holiday
135,235245183.90503794
3420,235245183.90503794
2,7,11,11, 0,18, 0.00,60.00,Holiday
135,45686830.32880463
3420,45686830.32880463
2,7,11,11, 0,19, 0.00,60.00,Holiday
135,218401177.2040571
3420,218401177.20405713
2,7,11,11, 0,20, 0.00,60.00,Holiday
135,49852043.76632162
3420,49852043.76632161
2,7,11,11, 0,21, 0.00,60.00,Holiday
135,169485195.85164815
3420,169485195.85164815
2,7,11,11, 0,22, 0.00,60.00,Holiday
135,49851883.70955594
3420,49851883.709555924
2,7,11,11, 0,23, 0.00,60.00,Holiday
135,139400631.40749598
3420,139400631.40749598
2,7,11,11, 0,24, 0.00,60.00,Holiday
135,49851883.70955594
3420,49851883.709555924
2,8,11,12, 0, 1, 0.00,60.00,Friday
135,147578647.30571434
3420,147578647.30571437
2,8,11,12, 0, 2, 0.00,60.00,Friday
135,58339004.11373618
3420,58339004.113736175
2,8,11,12, 0, 3, 0.00,60.00,Friday
135,141603374.2608813
3420,141603374.2608813
2,8,11,12, 0, 4, 0.00,60.00,Friday
135,58339004.11373618
3420,58339004.113736175
2,8,11,12, 0, 5, 0.00,60.00,Friday
135,138499224.48298815
3420,138499224.48298815
2,8,11,12, 0, 6, 0.00,60.00,Friday
135,58339004.11373618
3420,58339004.113736175
2,8,11,12, 0, 7, 0.00,60.00,Friday
135,144377401.8658578
3420,144377401.86585778
2,8,11,12, 0, 8, 0.00,60.00,Friday
135,196399063.08977777
3420,196399063.08977777
2,8,11,12, 0, 9, 0.00,60.00,Friday
135,368320074.7034588
3420,368320074.7034588
2,8,11,12, 0,10, 0.00,60.00,Friday
135,393596497.35320777
3420,393596497.3532078
2,8,11,12, 0,11, 0.00,60.00,Friday
135,404229679.76636326
3420,404229679.7663633
2,8,11,12, 0,12, 0.00,60.00,Friday
135,408029036.1536189
3420,408029036.1536189
2,8,11,12, 0,13, 0.00,60.00,Friday
135,404719324.8830015
3420,404719324.8830015
2,8,11,12, 0,14, 0.00,60.00,Friday
135,422622812.28536844
3420,422622812.28536844
2,8,11,12, 0,15, 0.00,60.00,Friday
135,427188803.95684874
3420,427188803.9568487
2,8,11,12, 0,16, 0.00,60.00,Friday
135,427890389.37666863
3420,427890389.37666863
2,8,11,12, 0,17, 0.00,60.00,Friday
135,427952291.8832877
3420,427952291.8832877
2,8,11,12, 0,18, 0.00,60.00,Friday
135,340819709.70325774
3420,340819709.70325774
2,8,11,12, 0,19, 0.00,60.00,Friday
135,315999975.73341566
3420,315999975.73341566
2,8,11,12, 0,20, 0.00,60.00,Friday
135,285629304.4085555
3420,285629304.4085555
2,8,11,12, 0,21, 0.00,60.00,Friday
135,248613627.65526274
3420,248613627.6552627
2,8,11,12, 0,22, 0.00,60.00,Friday
135,210049946.63460767
3420,210049946.6346077
2,8,11,12, 0,23, 0.00,60.00,Friday
135,190246236.15957808
3420,190246236.15957806
2,8,11,12, 0,24, 0.00,60.00,Friday
135,72563947.72384587
3420,72563947.72384587
2,9,11,13, 0, 1, 0.00,60.00,Saturday
135,129858772.91660662
3420,129858772.9166066
2,9,11,13, 0, 2, 0.00,60.00,Saturday
135,47088539.76632162
3420,47088539.766321614
2,9,11,13, 0, 3, 0.00,60.00,Saturday
135,133344280.68797751
3420,133344280.68797751
2,9,11,13, 0, 4, 0.00,60.00,Saturday
135,47088379.70955594
3420,47088379.70955593
2,9,11,13, 0, 5, 0.00,60.00,Saturday
135,131302871.95477794
3420,131302871.95477794
2,9,11,13, 0, 6, 0.00,60.00,Saturday
135,47088379.70955594
3420,47088379.70955593
2,9,11,13, 0, 7, 0.00,60.00,Saturday
135,147044608.9921841
3420,147044608.9921841
2,9,11,13, 0, 8, 0.00,60.00,Saturday
135,178754077.29041764
3420,178754077.29041764
2,9,11,13, 0, 9, 0.00,60.00,Saturday
135,223441306.23662463
3420,223441306.23662472
2,9,11,13, 0,10, 0.00,60.00,Saturday
135,239374457.508044
3420,239374457.50804403
2,9,11,13, 0,11, 0.00,60.00,Saturday
135,254514855.19220245
3420,254514855.19220245
2,9,11,13, 0,12, 0.00,60.00,Saturday
135,270820305.6659309
3420,270820305.6659309
2,9,11,13, 0,13, 0.00,60.00,Saturday
135,251580676.59707272
3420,251580676.59707272
2,9,11,13, 0,14, 0.00,60.00,Saturday
135,251571980.36124998
3420,251571980.36124998
2,9,11,13, 0,15, 0.00,60.00,Saturday
135,255613002.1723054
3420,255613002.1723054
2,9,11,13, 0,16, 0.00,60.00,Saturday
135,266703840.8959379
3420,266703840.89593792
2,9,11,13, 0,17, 0.00,60.00,Saturday
135,264966483.43743402
3420,264966483.43743396
2,9,11,13, 0,18, 0.00,60.00,Saturday
135,263504278.57276618
3420,263504278.57276618
2,9,11,13, 0,19, 0.00,60.00,Saturday
135,242148098.56420645
3420,242148098.56420642
2,9,11,13, 0,20, 0.00,60.00,Saturday
135,50491404.88721671
3420,50491404.8872167
2,9,11,13, 0,21, 0.00,60.00,Saturday
135,150028265.24948645
3420,150028265.24948645
2,9,11,13, 0,22, 0.00,60.00,Saturday
135,49851883.70955594
3420,49851883.709555924
2,9,11,13, 0,23, 0.00,60.00,Saturday
135,137088964.5238074
3420,137088964.5238074
2,9,11,13, 0,24, 0.00,60.00,Saturday
135,49851883.70955594
3420,49851883.709555924
2,10,11,14, 0, 1, 0.00,60.00,Sunday
135,129802283.98552723
3420,129802283.98552725
2,10,11,14, 0, 2, 0.00,60.00,Sunday
135,47088379.70955594
3420,47088379.70955593
2,10,11,14, 0, 3, 0.00,60.00,Sunday
135,129579841.98378648
3420,129579841.98378651
2,10,11,14, 0, 4, 0.00,60.00,Sunday
135,47088379.70955594
3420,47088379.70955593
2,10,11,14, 0, 5, 0.00,60.00,Sunday
135,131142125.2258645
3420,131142125.22586451
2,10,11,14, 0, 6, 0.00,60.00,Sunday
135,47088379.70955594
3420,47088379.70955593
2,10,11,14, 0, 7, 0.00,60.00,Sunday
135,132381679.83600914
3420,132381679.83600913
2,10,11,14, 0, 8, 0.00,60.00,Sunday
135,45965367.07935627
3420,45965367.07935627
2,10,11,14, 0, 9, 0.00,60.00,Sunday
135,142233767.3528136
3420,142233767.35281363
2,10,11,14, 0,10, 0.00,60.00,Sunday
135,45673521.11981929
3420,45673521.11981929
2,10,11,14, 0,11, 0.00,60.00,Sunday
135,167292534.7863326
3420,167292534.7863326
2,10,11,14, 0,12, 0.00,60.00,Sunday
135,45638120.3201933
3420,45638120.3201933
2,10,11,14, 0,13, 0.00,60.00,Sunday
135,192459887.21006945
3420,192459887.21006945
2,10,11,14, 0,14, 0.00,60.00,Sunday
135,45638118.19243602
3420,45638118.19243602
2,10,11,14, 0,15, 0.00,60.00,Sunday
135,212696345.7580769
3420,212696345.75807694
2,10,11,14, 0,16, 0.00,60.00,Sunday
135,45638118.19243601
3420,45638118.19243602
2,10,11,14, 0,17, 0.00,60.00,Sunday
135,237660960.07911694
3420,237660960.07911694
2,10,11,14, 0,18, 0.00,60.00,Sunday
135,45732362.853960484
3420,45732362.85396048
2,10,11,14, 0,19, 0.00,60.00,Sunday
135,185936553.96863264
3420,185936553.96863264
2,10,11,14, 0,20, 0.00,60.00,Sunday
135,49852043.76632162
3420,49852043.766321614
2,10,11,14, 0,21, 0.00,60.00,Sunday
135,142749458.89995784
3420,142749458.89995784
2,10,11,14, 0,22, 0.00,60.00,Sunday
135,49851883.70955594
3420,49851883.70955593
2,10,11,14, 0,23, 0.00,60.00,Sunday
135,135371496.76436794
3420,135371496.76436794
2,10,11,14, 0,24, 0.00,60.00,Sunday
135,49851883.70955594
3420,49851883.70955593
2,11,11,15, 0, 1, 0.00,60.00,Monday
135,134771170.0391747
3420,134771170.03917468
2,11,11,15, 0, 2, 0.00,60.00,Monday
135,58339004.11373618
3420,58339004.113736175
2,11,11,15, 0, 3, 0.00,60.00,Monday
135,137804841.39196318
3420,137804841.39196318
2,11,11,15, 0, 4, 0.00,60.00,Monday
135,58339004.11373618
3420,58339004.11373619
2,11,11,15, 0, 5, 0.00,60.00,Monday
135,132554723.36849293
3420,132554723.3684929
2,11,11,15, 0, 6, 0.00,60.00,Monday
135,58339004.11373618
3420,58339004.11373619
2,11,11,15, 0, 7, 0.00,60.00,Monday
135,142399599.0096395
3420,142399599.00963944
2,11,11,15, 0, 8, 0.00,60.00,Monday
135,180048715.52922308
3420,180048715.5292231
2,11,11,15, 0, 9, 0.00,60.00,Monday
135,361546863.72833735
3420,361546863.72833735
2,11,11,15, 0,10, 0.00,60.00,Monday
135,385360215.2484477
3420,385360215.2484478
2,11,11,15, 0,11, 0.00,60.00,Monday
135,398663459.2890536
3420,398663459.28905356
2,11,11,15, 0,12, 0.00,60.00,Monday
135,413438859.9219492
3420,413438859.9219492
2,11,11,15, 0,13, 0.00,60.00,Monday
135,394605796.0294231
3420,394605796.0294232
2,11,11,15, 0,14, 0.00,60.00,Monday
135,421009962.1141191
3420,421009962.1141192
2,11,11,15, 0,15, 0.00,60.00,Monday
135,427680401.46350175
3420,427680401.4635017
2,11,11,15, 0,16, 0.00,60.00,Monday
135,428111231.4622088
3420,428111231.46220887
2,11,11,15, 0,17, 0.00,60.00,Monday
135,429869845.71207553
3420,429869845.7120756
2,11,11,15, 0,18, 0.00,60.00,Monday
135,342702335.44909036
3420,342702335.44909036
2,11,11,15, 0,19, 0.00,60.00,Monday
135,310548104.96063393
3420,310548104.960634
2,11,11,15, 0,20, 0.00,60.00,Monday
135,280072086.12154734
3420,280072086.12154734
2,11,11,15, 0,21, 0.00,60.00,Monday
135,245782883.24515152
3420,245782883.24515152
2,11,11,15, 0,22, 0.00,60.00,Monday
135,213763645.79377884
3420,213763645.79377884
2,11,11,15, 0,23, 0.00,60.00,Monday
135,184584179.77964556
3420,184584179.77964556
2,11,11,15, 0,24, 0.00,60.00,Monday
135,72563947.72384587
3420,72563947.72384587
2,12,11,16, 0, 1, 0.00,60.00,Tuesday
135,143544228.21044788
3420,143544228.21044788
2,12,11,16, 0, 2, 0.00,60.00,Tuesday
135,58339223.49717496
3420,58339223.497174956
2,12,11,16, 0, 3, 0.00,60.00,Tuesday
135,143495237.04104877
3420,143495237.04104877
2,12,11,16, 0, 4, 0.00,60.00,Tuesday
135,58339004.11373618
3420,58339004.113736175
2,12,11,16, 0, 5, 0.00,60.00,Tuesday
135,142439978.6198556
3420,142439978.61985558
2,12,11,16, 0, 6, 0.00,60.00,Tuesday
135,58339004.11373618
3420,58339004.11373619
2,12,11,16, 0, 7, 0.00,60.00,Tuesday
135,142941652.71495482
3420,142941652.71495482
2,12,11,16, 0, 8, 0.00,60.00,Tuesday
135,180410268.23882577
3420,180410268.23882577
2,12,11,16, 0, 9, 0.00,60.00,Tuesday
135,354997846.5012557
3420,354997846.5012557
2,12,11,16, 0,10, 0.00,60.00,Tuesday
135,374909501.5857222
3420,374909501.5857222
2,12,11,16, 0,11, 0.00,60.00,Tuesday
135,391471271.8092363
3420,391471271.80923635
2,12,11,16, 0,12, 0.00,60.00,Tuesday
135,398099884.381921
3420,398099884.381921
2,12,11,16, 0,13, 0.00,60.00,Tuesday
135,376196220.44800264
3420,376196220.4480027
2,12,11,16, 0,14, 0.00,60.00,Tuesday
135,410519535.14748806
3420,410519535.1474881
2,12,11,16, 0,15, 0.00,60.00,Tuesday
135,410814603.96441644
3420,410814603.9644165
2,12,11,16, 0,16, 0.00,60.00,Tuesday
135,412628862.2371446
3420,412628862.23714453
2,12,11,16, 0,17, 0.00,60.00,Tuesday
135,404449147.4066468
3420,404449147.4066468
2,12,11,16, 0,18, 0.00,60.00,Tuesday
135,279573300.00521797
3420,279573300.00521797
2,12,11,16, 0,19, 0.00,60.00,Tuesday
135,235667735.07645732
3420,235667735.07645735
2,12,11,16, 0,20, 0.00,60.00,Tuesday
135,214482753.17876536
3420,214482753.1787654
2,12,11,16, 0,21, 0.00,60.00,Tuesday
135,188418699.22174808
3420,188418699.2217481
2,12,11,16, 0,22, 0.00,60.00,Tuesday
135,179806407.07272437
3420,179806407.07272437
2,12,11,16, 0,23, 0.00,60.00,Tuesday
135,155493461.87279877
3420,155493461.8727988
2,12,11,16, 0,24, 0.00,60.00,Tuesday
135,72563947.72384587
3420,72563947.72384587
2,13,11,17, 0, 1, 0.00,60.00,Wednesday
135,142750402.06203312
3420,142750402.06203312
2,13,11,17, 0, 2, 0.00,60.00,Wednesday
135,58339223.49717496
3420,58339223.49717496
2,13,11,17, 0, 3, 0.00,60.00,Wednesday
135,140759468.32849154
3420,140759468.3284915
2,13,11,17, 0, 4, 0.00,60.00,Wednesday
135,58339004.11373618
3420,58339004.11373618
2,13,11,17, 0, 5, 0.00,60.00,Wednesday
135,130220651.32482654
3420,130220651.32482652
2,13,11,17, 0, 6, 0.00,60.00,Wednesday
135,58339004.11373618
3420,58339004.11373618
2,13,11,17, 0, 7, 0.00,60.00,Wednesday
135,128398946.90759432
3420,128398946.90759432
2,13,11,17, 0, 8, 0.00,60.00,Wednesday
135,161635981.00828356
3420,161635981.00828362
2,13,11,17, 0, 9, 0.00,60.00,Wednesday
135,346662526.5837695
3420,346662526.58376956
2,13,11,17, 0,10, 0.00,60.00,Wednesday
135,396178823.0666554
3420,396178823.06665546
2,13,11,17, 0,11, 0.00,60.00,Wednesday
135,393195194.4582561
3420,393195194.4582562
2,13,11,17, 0,12, 0.00,60.00,Wednesday
135,394832862.20449066
3420,394832862.20449066
2,13,11,17, 0,13, 0.00,60.00,Wednesday
135,395053186.1939085
3420,395053186.19390845
2,13,11,17, 0,14, 0.00,60.00,Wednesday
135,425700821.10209125
3420,425700821.1020913
2,13,11,17, 0,15, 0.00,60.00,Wednesday
135,424966986.7408647
3420,424966986.74086475
2,13,11,17, 0,16, 0.00,60.00,Wednesday
135,421905091.78068745
3420,421905091.78068745
2,13,11,17, 0,17, 0.00,60.00,Wednesday
135,430890467.7797375
3420,430890467.7797375
2,13,11,17, 0,18, 0.00,60.00,Wednesday
135,340024047.5001329
3420,340024047.500133
2,13,11,17, 0,19, 0.00,60.00,Wednesday
135,286034558.24944896
3420,286034558.24944896
2,13,11,17, 0,20, 0.00,60.00,Wednesday
135,245552270.10291213
3420,245552270.10291213
2,13,11,17, 0,21, 0.00,60.00,Wednesday
135,207933746.72465092
3420,207933746.72465092
2,13,11,17, 0,22, 0.00,60.00,Wednesday
135,190132651.0882011
3420,190132651.08820108
2,13,11,17, 0,23, 0.00,60.00,Wednesday
135,164350008.50383848
3420,164350008.50383848
2,13,11,17, 0,24, 0.00,60.00,Wednesday
135,72563947.72384587
3420,72563947.72384587
2,14,11,18, 0, 1, 0.00,60.00,Thursday
135,142504226.80558243
3420,142504226.80558246
2,14,11,18, 0, 2, 0.00,60.00,Thursday
135,58339223.49717496
3420,58339223.49717496
2,14,11,18, 0, 3, 0.00,60.00,Thursday
135,143329502.10134172
3420,143329502.1013417
2,14,11,18, 0, 4, 0.00,60.00,Thursday
135,58339004.11373618
3420,58339004.11373618
2,14,11,18, 0, 5, 0.00,60.00,Thursday
135,132190622.8917816
3420,132190622.89178161
2,14,11,18, 0, 6, 0.00,60.00,Thursday
135,58339004.11373618
3420,58339004.11373618
2,14,11,18, 0, 7, 0.00,60.00,Thursday
135,131762933.94680814
3420,131762933.94680816
2,14,11,18, 0, 8, 0.00,60.00,Thursday
135,150239312.51464236
3420,150239312.5146424
2,14,11,18, 0, 9, 0.00,60.00,Thursday
135,352675855.2208272
3420,352675855.2208272
2,14,11,18, 0,10, 0.00,60.00,Thursday
135,388083662.9806806
3420,388083662.9806806
2,14,11,18, 0,11, 0.00,60.00,Thursday
135,400582605.80534357
3420,400582605.80534357
2,14,11,18, 0,12, 0.00,60.00,Thursday
135,415848997.4346377
3420,415848997.4346378
2,14,11,18, 0,13, 0.00,60.00,Thursday
135,379473021.08392704
3420,379473021.083927
2,14,11,18, 0,14, 0.00,60.00,Thursday
135,424594802.2614457
3420,424594802.2614457
2,14,11,18, 0,15, 0.00,60.00,Thursday
135,428028228.24102634
3420,428028228.2410263
2,14,11,18, 0,16, 0.00,60.00,Thursday
135,431690263.49954945
3420,431690263.4995494
2,14,11,18, 0,17, 0.00,60.00,Thursday
135,432547125.17001414
3420,432547125.17001414
2,14,11,18, 0,18, 0.00,60.00,Thursday
135,352098044.8352099
3420,352098044.83520997
2,14,11,18, 0,19, 0.00,60.00,Thursday
135,330313704.6345311
3420,330313704.634531
2,14,11,18, 0,20, 0.00,60.00,Thursday
135,277767158.8985426
3420,277767158.89854264
2,14,11,18, 0,21, 0.00,60.00,Thursday
135,235950886.470984
3420,235950886.47098404
2,14,11,18, 0,22, 0.00,60.00,Thursday
135,207019881.5363571
3420,207019881.5363571
2,14,11,18, 0,23, 0.00,60.00,Thursday
135,176469585.1691043
3420,176469585.1691043
2,14,11,18, 0,24, 0.00,60.00,Thursday
135,72563947.72384587
3420,72563947.72384587
2,15,11,19, 0, 1, 0.00,60.00,Friday
135,143789610.1050986
3420,143789610.10509863
2,15,11,19, 0, 2, 0.00,60.00,Friday
135,58339223.49717496
3420,58339223.497174956
2,15,11,19, 0, 3, 0.00,60.00,Friday
135,146647589.6435727
3420,146647589.6435727
2,15,11,19, 0, 4, 0.00,60.00,Friday
135,58339004.11373618
3420,58339004.11373619
2,15,11,19, 0, 5, 0.00,60.00,Friday
135,140555432.30348027
3420,140555432.30348027
2,15,11,19, 0, 6, 0.00,60.00,Friday
135,58339004.11373618
3420,58339004.11373619
2,15,11,19, 0, 7, 0.00,60.00,Friday
135,137146446.159333
3420,137146446.159333
2,15,11,19, 0, 8, 0.00,60.00,Friday
135,151142581.3364138
3420,151142581.33641383
2,15,11,19, 0, 9, 0.00,60.00,Friday
135,343940008.1766757
3420,343940008.1766756
2,15,11,19, 0,10, 0.00,60.00,Friday
135,354410397.9811687
3420,354410397.9811687
2,15,11,19, 0,11, 0.00,60.00,Friday
135,390382440.2348775
3420,390382440.2348776
2,15,11,19, 0,12, 0.00,60.00,Friday
135,410674791.75637144
3420,410674791.75637156
2,15,11,19, 0,13, 0.00,60.00,Friday
135,381335784.7202841
3420,381335784.7202841
2,15,11,19, 0,14, 0.00,60.00,Friday
135,418488827.4968913
3420,418488827.4968913
2,15,11,19, 0,15, 0.00,60.00,Friday
135,424423845.38305825
3420,424423845.3830583
2,15,11,19, 0,16, 0.00,60.00,Friday
135,424546753.34941393
3420,424546753.349414
2,15,11,19, 0,17, 0.00,60.00,Friday
135,424051789.52203625
3420,424051789.52203625
2,15,11,19, 0,18, 0.00,60.00,Friday
135,339225033.08217365
3420,339225033.08217365
2,15,11,19, 0,19, 0.00,60.00,Friday
135,298223005.95899963
3420,298223005.95899963