Program Version,EnergyPlus, Version 23.1.0-87ed9199d4, YMD=2026.02.01 15:23
1,5,Environment Title[],Latitude[deg],Longitude[deg],Time Zone[],Elevation[m]
2,8,Day of Simulation[],Month[],Day of Month[],DST Indicator[1=yes 0=no],Hour[],StartMinute[],EndMinute[],DayType
3,5,Cumulative Day of Simulation[],Month[],Day of Month[],DST Indicator[1=yes 0=no],DayType  ! When Daily Meters Requested
4,2,Cumulative Days of Simulation[],Month[]  ! When Monthly Meters Requested
5,1,Cumulative Days of Simulation[] ! When Run Period Meters Requested
6,1,Calendar Year of Simulation[] ! When Annual Meters Requested
135,1,Electricity:Facility [J] !Hourly
3420,1,ElectricityNet:Facility [J] !Hourly
End of Data Dictionary
1,RUNPERIOD 1,  -2.16, -79.88,  -5.00,   5.80
2,1,11, 4, 1, 1, 0.00,60.00,Thursday
135,117045206.715318
3420,117045206.715318
2,1,11, 4, 1, 2, 0.00,60.00,Thursday
135,58339004.11373618
3420,58339004.11373618
2,1,11, 4, 1, 3, 0.00,60.00,Thursday
135,134410148.57149398
3420,134410148.57149404
2,1,11, 4, 1, 4, 0.00,60.00,Thursday
135,58339004.11373618
3420,58339004.11373618
2,1,11, 4, 1, 5, 0.00,60.00,Thursday
135,141234727.17944583
3420,141234727.17944583
2,1,11, 4, 1, 6, 0.00,60.00,Thursday
135,140325293.82708
3420,140325293.82708004
2,1,11, 4, 1, 7, 0.00,60.00,Thursday
135,149852414.02802262
3420,149852414.02802262
2,1,11, 4, 1, 8, 0.00,60.00,Thursday
135,315663308.391069
3420,315663308.391069
2,1,11, 4, 1, 9, 0.00,60.00,Thursday
135,336102373.4346755
3420,336102373.43467546
2,1,11, 4, 1,10, 0.00,60.00,Thursday
135,363104088.46754396
3420,363104088.467544
2,1,11, 4, 1,11, 0.00,60.00,Thursday
135,363985203.5871204
3420,363985203.58712035
2,1,11, 4, 1,12, 0.00,60.00,Thursday
135,351980499.34698826
3420,351980499.34698826
2,1,11, 4, 1,13, 0.00,60.00,Thursday
135,405165686.4469676
3420,405165686.44696766
2,1,11, 4, 1,14, 0.00,60.00,Thursday
135,398839966.65219
3420,398839966.6521901
2,1,11, 4, 1,15, 0.00,60.00,Thursday
135,409426282.9201096
3420,409426282.9201096
2,1,11, 4, 1,16, 0.00,60.00,Thursday
135,409935189.9468162
3420,409935189.9468163
2,1,11, 4, 1,17, 0.00,60.00,Thursday
135,268485662.76924783
3420,268485662.7692479
2,1,11, 4, 1,18, 0.00,60.00,Thursday
135,224636133.35689074
3420,224636133.35689074
2,1,11, 4, 1,19, 0.00,60.00,Thursday
135,210572889.89485663
3420,210572889.89485666
2,1,11, 4, 1,20, 0.00,60.00,Thursday
135,184319253.7116428
3420,184319253.71164277
2,1,11, 4, 1,21, 0.00,60.00,Thursday
135,177283712.76037285
3420,177283712.76037288
2,1,11, 4, 1,22, 0.00,60.00,Thursday
135,153913267.866725
3420,153913267.866725
2,1,11, 4, 1,23, 0.00,60.00,Thursday
135,72563947.72384587
3420,72563947.72384587
2,1,11, 4, 1,24, 0.00,60.00,Thursday
135,148145576.15293428
3420,148145576.1529343
2,2,11, 5, 1, 1, 0.00,60.00,Friday
135,58339223.49717496
3420,58339223.49717496
2,2,11, 5, 1, 2, 0.00,60.00,Friday
135,135805277.36596793
3420,135805277.3659679
2,2,11, 5, 1, 3, 0.00,60.00,Friday
135,58339004.11373618
3420,58339004.11373618
2,2,11, 5, 1, 4, 0.00,60.00,Friday
135,133826593.84661403
3420,133826593.84661405
2,2,11, 5, 1, 5, 0.00,60.00,Friday
135,58339004.11373618
3420,58339004.11373618
2,2,11, 5, 1, 6, 0.00,60.00,Friday
135,158750438.45015404
3420,158750438.45015407
2,2,11, 5, 1, 7, 0.00,60.00,Friday
135,143199039.40071422
3420,143199039.40071422
2,2,11, 5, 1, 8, 0.00,60.00,Friday
135,317916191.2258033
3420,317916191.2258033
2,2,11, 5, 1, 9, 0.00,60.00,Friday
135,347584171.44276994
3420,347584171.44277
2,2,11, 5, 1,10, 0.00,60.00,Friday
135,371820352.0545672
3420,371820352.0545673
2,2,11, 5, 1,11, 0.00,60.00,Friday
135,380566774.1979748
3420,380566774.1979748
2,2,11, 5, 1,12, 0.00,60.00,Friday
135,367769192.66865426
3420,367769192.6686542
2,2,11, 5, 1,13, 0.00,60.00,Friday
135,416634315.8892467
3420,416634315.8892467
2,2,11, 5, 1,14, 0.00,60.00,Friday
135,409505849.8649173
3420,409505849.86491734
2,2,11, 5, 1,15, 0.00,60.00,Friday
135,420975870.9099808
3420,420975870.9099808
2,2,11, 5, 1,16, 0.00,60.00,Friday
135,420985037.8448053
3420,420985037.84480536
2,2,11, 5, 1,17, 0.00,60.00,Friday
135,313608318.45213467
3420,313608318.4521346
2,2,11, 5, 1,18, 0.00,60.00,Friday
135,304289989.6589802
3420,304289989.6589802
2,2,11, 5, 1,19, 0.00,60.00,Friday
135,270114843.46461254
3420,270114843.4646125
2,2,11, 5, 1,20, 0.00,60.00,Friday
135,234139260.25301892
3420,234139260.25301886
2,2,11, 5, 1,21, 0.00,60.00,Friday
135,203903320.23923704
3420,203903320.23923707
2,2,11, 5, 1,22, 0.00,60.00,Friday
135,175847549.53937775
3420,175847549.53937775
2,2,11, 5, 1,23, 0.00,60.00,Friday
135,72563947.72384587
3420,72563947.72384587
2,2,11, 5, 1,24, 0.00,60.00,Friday
135,135309943.89062893
3420,135309943.89062893
2,3,11, 6, 1, 1, 0.00,60.00,Saturday
135,47088539.76632162
3420,47088539.76632162
2,3,11, 6, 1, 2, 0.00,60.00,Saturday
135,135344126.2203649
3420,135344126.22036493
2,3,11, 6, 1, 3, 0.00,60.00,Saturday
135,47088379.70955594
3420,47088379.70955595
2,3,11, 6, 1, 4, 0.00,60.00,Saturday
135,135372393.23054323
3420,135372393.2305432
2,3,11, 6, 1, 5, 0.00,60.00,Saturday
135,47088379.70955594
3420,47088379.70955594
2,3,11, 6, 1, 6, 0.00,60.00,Saturday
135,153504999.33512214
3420,153504999.3351221
2,3,11, 6, 1, 7, 0.00,60.00,Saturday
135,123147871.49497981
3420,123147871.49497981
2,3,11, 6, 1, 8, 0.00,60.00,Saturday
135,194458923.6486795
3420,194458923.6486795
2,3,11, 6, 1, 9, 0.00,60.00,Saturday
135,215863001.6517229
3420,215863001.6517229
2,3,11, 6, 1,10, 0.00,60.00,Saturday
135,240609258.8534839
3420,240609258.85348386
2,3,11, 6, 1,11, 0.00,60.00,Saturday
135,249898433.07143757
3420,249898433.07143754
2,3,11, 6, 1,12, 0.00,60.00,Saturday
135,228273005.70675993
3420,228273005.70675993
2,3,11, 6, 1,13, 0.00,60.00,Saturday
135,235263672.1004336
3420,235263672.1004336
2,3,11, 6, 1,14, 0.00,60.00,Saturday
135,231131499.6756392
3420,231131499.67563918
2,3,11, 6, 1,15, 0.00,60.00,Saturday
135,235164903.37677276
3420,235164903.37677276
2,3,11, 6, 1,16, 0.00,60.00,Saturday
135,240377575.7664876
3420,240377575.76648757
2,3,11, 6, 1,17, 0.00,60.00,Saturday
135,221060536.914461
3420,221060536.914461
2,3,11, 6, 1,18, 0.00,60.00,Saturday
135,217934695.5501795
3420,217934695.55017954
2,3,11, 6, 1,19, 0.00,60.00,Saturday
135,50491177.195614256
3420,50491177.195614256
2,3,11, 6, 1,20, 0.00,60.00,Saturday
135,166120141.19685552
3420,166120141.19685552
2,3,11, 6, 1,21, 0.00,60.00,Saturday
135,49851883.70955594
3420,49851883.70955593
2,3,11, 6, 1,22, 0.00,60.00,Saturday
135,129918180.96354482
3420,129918180.96354482
2,3,11, 6, 1,23, 0.00,60.00,Saturday
135,49851883.70955594
3420,49851883.70955593
2,3,11, 6, 1,24, 0.00,60.00,Saturday
135,128747473.90377046
3420,128747473.90377046
2,4,11, 7, 1, 1, 0.00,60.00,Sunday
135,47088379.70955594
3420,47088379.70955595
2,4,11, 7, 1, 2, 0.00,60.00,Sunday
135,124502612.92353718
3420,124502612.92353718
2,4,11, 7, 1, 3, 0.00,60.00,Sunday
135,47088379.70955594
3420,47088379.70955595
2,4,11, 7, 1, 4, 0.00,60.00,Sunday
135,125551011.77881093
3420,125551011.77881092
2,4,11, 7, 1, 5, 0.00,60.00,Sunday
135,47088379.70955594
3420,47088379.70955595
2,4,11, 7, 1, 6, 0.00,60.00,Sunday
135,149887902.8897416
3420,149887902.8897416
2,4,11, 7, 1, 7, 0.00,60.00,Sunday
135,46598021.62012825
3420,46598021.620128244
2,4,11, 7, 1, 8, 0.00,60.00,Sunday
135,140634017.50501853
3420,140634017.50501856
2,4,11, 7, 1, 9, 0.00,60.00,Sunday
135,45638145.96115036
3420,45638145.961150356
2,4,11, 7, 1,10, 0.00,60.00,Sunday
135,177316302.38006443
3420,177316302.38006443
2,4,11, 7, 1,11, 0.00,60.00,Sunday
135,45638118.19243601
3420,45638118.19243602
2,4,11, 7, 1,12, 0.00,60.00,Sunday
135,210612463.6491009
3420,210612463.64910093
2,4,11, 7, 1,13, 0.00,60.00,Sunday
135,45638118.19243601
3420,45638118.19243602
2,4,11, 7, 1,14, 0.00,60.00,Sunday
135,217730155.62628517
3420,217730155.62628523
2,4,11, 7, 1,15, 0.00,60.00,Sunday
135,45638118.19243602
3420,45638118.19243602
2,4,11, 7, 1,16, 0.00,60.00,Sunday
135,226589926.94768935
3420,226589926.94768932
2,4,11, 7, 1,17, 0.00,60.00,Sunday
135,45638118.19243601
3420,45638118.19243601
2,4,11, 7, 1,18, 0.00,60.00,Sunday
135,224051499.8329884
3420,224051499.83298844
2,4,11, 7, 1,19, 0.00,60.00,Sunday
135,50112538.84938994
3420,50112538.84938995
2,4,11, 7, 1,20, 0.00,60.00,Sunday
135,178702379.6069237
3420,178702379.60692367
2,4,11, 7, 1,21, 0.00,60.00,Sunday
135,49851883.70955594
3420,49851883.709555924
2,4,11, 7, 1,22, 0.00,60.00,Sunday
135,138535744.71483165
3420,138535744.71483162
2,4,11, 7, 1,23, 0.00,60.00,Sunday
135,49851883.70955594
3420,49851883.709555924
2,4,11, 7, 1,24, 0.00,60.00,Sunday
135,149960143.82754308
3420,149960143.8275431
2,5,11, 8, 0, 1, 0.00,60.00,Monday
135,58339004.11373618
3420,58339004.113736175
2,5,11, 8, 0, 2, 0.00,60.00,Monday
135,144685938.48907435
3420,144685938.48907435
2,5,11, 8, 0, 3, 0.00,60.00,Monday
135,58339004.11373618
3420,58339004.113736175
2,5,11, 8, 0, 4, 0.00,60.00,Monday
135,141195341.04100257
3420,141195341.04100257
2,5,11, 8, 0, 5, 0.00,60.00,Monday
135,58339004.11373618
3420,58339004.113736175
2,5,11, 8, 0, 6, 0.00,60.00,Monday
135,144434401.911095
3420,144434401.911095
2,5,11, 8, 0, 7, 0.00,60.00,Monday
135,126089081.16383857
3420,126089081.16383857
2,5,11, 8, 0, 8, 0.00,60.00,Monday
135,185234041.53215986
3420,185234041.53215986
2,5,11, 8, 0, 9, 0.00,60.00,Monday
135,364436369.89655954
3420,364436369.89655954
2,5,11, 8, 0,10, 0.00,60.00,Monday
135,379935462.41501266
3420,379935462.4150126
2,5,11, 8, 0,11, 0.00,60.00,Monday
135,396576711.86315584
3420,396576711.8631559
2,5,11, 8, 0,12, 0.00,60.00,Monday
135,411971288.28268975
3420,411971288.28268975
2,5,11, 8, 0,13, 0.00,60.00,Monday
135,391164747.4469358
3420,391164747.4469357
2,5,11, 8, 0,14, 0.00,60.00,Monday
135,416569405.7461619
3420,416569405.74616194
2,5,11, 8, 0,15, 0.00,60.00,Monday
135,421069955.00523955
3420,421069955.0052396
2,5,11, 8, 0,16, 0.00,60.00,Monday
135,421330962.09546554
3420,421330962.09546554
2,5,11, 8, 0,17, 0.00,60.00,Monday
135,421425132.29623777
3420,421425132.2962378
2,5,11, 8, 0,18, 0.00,60.00,Monday
135,339017596.8142747
3420,339017596.8142748
2,5,11, 8, 0,19, 0.00,60.00,Monday
135,306259835.0456209
3420,306259835.0456209
2,5,11, 8, 0,20, 0.00,60.00,Monday
135,267562241.2576228
3420,267562241.25762278
2,5,11, 8, 0,21, 0.00,60.00,Monday
135,224582295.73705807
3420,224582295.73705807
2,5,11, 8, 0,22, 0.00,60.00,Monday
135,199088258.55054894
3420,199088258.5505489
2,5,11, 8, 0,23, 0.00,60.00,Monday
135,176878250.99712616
3420,176878250.99712616
2,5,11, 8, 0,24, 0.00,60.00,Monday
135,72563947.72384587
3420,72563947.72384587
2,6,11, 9, 0, 1, 0.00,60.00,Tuesday
135,133353558.12794961
3420,133353558.12794961
2,6,11, 9, 0, 2, 0.00,60.00,Tuesday
135,58339223.49717496
3420,58339223.497174956
2,6,11, 9, 0, 3, 0.00,60.00,Tuesday
135,136863773.4194762
3420,136863773.4194762
2,6,11, 9, 0, 4, 0.00,60.00,Tuesday
135,58339004.11373618
3420,58339004.113736175
2,6,11, 9, 0, 5, 0.00,60.00,Tuesday
135,142185036.40342385
3420,142185036.40342388
2,6,11, 9, 0, 6, 0.00,60.00,Tuesday
135,58339004.11373618
3420,58339004.113736175
2,6,11, 9, 0, 7, 0.00,60.00,Tuesday
135,133282264.18942696
3420,133282264.18942694
2,6,11, 9, 0, 8, 0.00,60.00,Tuesday
135,181936245.69779512
3420,181936245.69779512
2,6,11, 9, 0, 9, 0.00,60.00,Tuesday
135,359517395.4675088
3420,359517395.4675087
2,6,11, 9, 0,10, 0.00,60.00,Tuesday
135,385414507.2935961
3420,385414507.29359615
2,6,11, 9, 0,11, 0.00,60.00,Tuesday
135,396403080.9577476
3420,396403080.95774764
2,6,11, 9, 0,12, 0.00,60.00,Tuesday
135,400117283.17688334
3420,400117283.1768834
2,6,11, 9, 0,13, 0.00,60.00,Tuesday
135,391913616.6856661
3420,391913616.685666
2,6,11, 9, 0,14, 0.00,60.00,Tuesday
135,412121487.3820414
3420,412121487.38204145
2,6,11, 9, 0,15, 0.00,60.00,Tuesday
135,419908867.13900673
3420,419908867.1390068
2,6,11, 9, 0,16, 0.00,60.00,Tuesday
135,424601341.3238351
3420,424601341.32383513
2,6,11, 9, 0,17, 0.00,60.00,Tuesday
135,421920694.05927104
3420,421920694.0592711
2,6,11, 9, 0,18, 0.00,60.00,Tuesday
135,338312197.30341846
3420,338312197.30341846
2,6,11, 9, 0,19, 0.00,60.00,Tuesday
135,306786720.3956892
3420,306786720.3956892
2,6,11, 9, 0,20, 0.00,60.00,Tuesday
135,270521709.820345
3420,270521709.8203449
2,6,11, 9, 0,21, 0.00,60.00,Tuesday
135,225895508.2270372
3420,225895508.2270372
2,6,11, 9, 0,22, 0.00,60.00,Tuesday
135,209562046.38813904
3420,209562046.38813904
2,6,11, 9, 0,23, 0.00,60.00,Tuesday
135,181312501.27369007
3420,181312501.27369007
2,6,11, 9, 0,24, 0.00,60.00,Tuesday
135,72563947.72384587
3420,72563947.72384587
2,7,11,10, 0, 1, 0.00,60.00,Wednesday
135,143642773.34893262
3420,143642773.34893262
2,7,11,10, 0, 2, 0.00,60.00,Wednesday
135,58339223.49717496
3420,58339223.497174956
2,7,11,10, 0, 3, 0.00,60.00,Wednesday
135,141097594.73038155
3420,141097594.73038155
2,7,11,10, 0, 4, 0.00,60.00,Wednesday
135,58339004.11373618
3420,58339004.113736175
2,7,11,10, 0, 5, 0.00,60.00,Wednesday
135,135971587.77014324
3420,135971587.77014324
2,7,11,10, 0, 6, 0.00,60.00,Wednesday
135,58339004.11373618
3420,58339004.113736175
2,7,11,10, 0, 7, 0.00,60.00,Wednesday
135,140601168.19339725
3420,140601168.19339722
2,7,11,10, 0, 8, 0.00,60.00,Wednesday
135,193211345.11063546
3420,193211345.11063546
2,7,11,10, 0, 9, 0.00,60.00,Wednesday
135,369863386.74429435
3420,369863386.7442943
2,7,11,10, 0,10, 0.00,60.00,Wednesday
135,397845980.90162516
3420,397845980.9016251
2,7,11,10, 0,11, 0.00,60.00,Wednesday
135,403111889.6063194
3420,403111889.6063194
2,7,11,10, 0,12, 0.00,60.00,Wednesday
135,412059811.3252392
3420,412059811.32523924
2,7,11,10, 0,13, 0.00,60.00,Wednesday
135,400634315.4023588
3420,400634315.4023588
2,7,11,10, 0,14, 0.00,60.00,Wednesday
135,421020541.1382878
3420,421020541.1382877
2,7,11,10, 0,15, 0.00,60.00,Wednesday
135,424569191.1236416
3420,424569191.1236417
2,7,11,10, 0,16, 0.00,60.00,Wednesday
135,427929261.0028284
3420,427929261.0028285
2,7,11,10, 0,17, 0.00,60.00,Wednesday
135,425831857.91267455
3420,425831857.91267455
2,7,11,10, 0,18, 0.00,60.00,Wednesday
135,341829728.98862225
3420,341829728.9886223
2,7,11,10, 0,19, 0.00,60.00,Wednesday
135,324294954.0287581
3420,324294954.0287581
2,7,11,10, 0,20, 0.00,60.00,Wednesday
135,293992391.4876667
3420,293992391.48766667
2,7,11,10, 0,21, 0.00,60.00,Wednesday
135,249151001.13167277
3420,249151001.1316727
2,7,11,10, 0,22, 0.00,60.00,Wednesday
135,215768355.34028232
3420,215768355.3402823
2,7,11,10, 0,23, 0.00,60.00,Wednesday
135,189259278.89214364
3420,189259278.89214364
2,7,11,10, 0,24, 0.00,60.00,Wednesday
135,72563947.72384587
3420,72563947.72384587
2,8,11,11, 0, 1, 0.00,60.00,Holiday
135,141101270.8065773
3420,141101270.8065773
2,8,11,11, 0, 2, 0.00,60.00,Holiday
135,47088539.76632162
3420,47088539.766321614
2,8,11,11, 0, 3, 0.00,60.00,Holiday
135,137834699.4379825
3420,137834699.4379825
2,8,11,11, 0, 4, 0.00,60.00,Holiday
135,47088379.70955594
3420,47088379.70955593
2,8,11,11, 0, 5, 0.00,60.00,Holiday
135,135938952.2946629
3420,135938952.29466292
2,8,11,11, 0, 6, 0.00,60.00,Holiday
135,47088379.70955594
3420,47088379.70955593
2,8,11,11, 0, 7, 0.00,60.00,Holiday
135,136787633.40477726
3420,136787633.40477726
2,8,11,11, 0, 8, 0.00,60.00,Holiday
135,45743246.76570779
3420,45743246.76570778
2,8,11,11, 0, 9, 0.00,60.00,Holiday
135,168033070.05529225
3420,168033070.05529225
2,8,11,11, 0,10, 0.00,60.00,Holiday
135,45638118.19243601
3420,45638118.192436
2,8,11,11, 0,11, 0.00,60.00,Holiday
135,202999820.78153765
3420,202999820.78153768
2,8,11,11, 0,12, 0.00,60.00,Holiday
135,45638118.19243602
3420,45638118.19243602
2,8,11,11, 0,13, 0.00,60.00,Holiday
135,219575160.16897485
3420,219575160.16897485
2,8,11,11, 0,14, 0.00,60.00,Holiday
135,45638118.19243601
3420,45638118.19243601
2,8,11,11, 0,15, 0.00,60.00,Holiday
135,236732298.98923782
3420,236732298.98923784
2,8,11,11, 0,16, 0.00,60.00,Holiday
135,45638118.19243601
3420,45638118.192436
2,8,11,11, 0,17, 0.00,60.00,Holiday
135,236536580.03705654
3420,236536580.03705657
2,8,11,11, 0,18, 0.00,60.00,Holiday
135,45686717.34699343
3420,45686717.34699342
2,8,11,11, 0,19, 0.00,60.00,Holiday
135,216138240.93386376
3420,216138240.93386376
2,8,11,11, 0,20, 0.00,60.00,Holiday
135,49852043.76632162
3420,49852043.76632161
2,8,11,11, 0,21, 0.00,60.00,Holiday
135,169113077.19538245
3420,169113077.19538242
2,8,11,11, 0,22, 0.00,60.00,Holiday
135,49851883.70955594
3420,49851883.709555924
2,8,11,11, 0,23, 0.00,60.00,Holiday
135,139348853.42799738
3420,139348853.42799738
2,8,11,11, 0,24, 0.00,60.00,Holiday
135,49851883.70955594
3420,49851883.709555924
2,9,11,12, 0, 1, 0.00,60.00,Friday
135,147241617.3604768
3420,147241617.3604768
2,9,11,12, 0, 2, 0.00,60.00,Friday
135,58339004.11373618
3420,58339004.113736175
2,9,11,12, 0, 3, 0.00,60.00,Friday
135,140889148.1086859
3420,140889148.1086859
2,9,11,12, 0, 4, 0.00,60.00,Friday
135,58339004.11373618
3420,58339004.113736175
2,9,11,12, 0, 5, 0.00,60.00,Friday
135,138277694.43953618
3420,138277694.4395362
2,9,11,12, 0, 6, 0.00,60.00,Friday
135,58339004.11373618
3420,58339004.113736175
2,9,11,12, 0, 7, 0.00,60.00,Friday
135,144262648.1363881
3420,144262648.1363881
2,9,11,12, 0, 8, 0.00,60.00,Friday
135,195887801.97226793
3420,195887801.9722679
2,9,11,12, 0, 9, 0.00,60.00,Friday
135,374298970.67385167
3420,374298970.6738516
2,9,11,12, 0,10, 0.00,60.00,Friday
135,393238803.10067564
3420,393238803.1006757
2,9,11,12, 0,11, 0.00,60.00,Friday
135,403978469.705121
3420,403978469.70512104
2,9,11,12, 0,12, 0.00,60.00,Friday
135,407871840.8219506
3420,407871840.8219506
2,9,11,12, 0,13, 0.00,60.00,Friday
135,404663471.3279818
3420,404663471.3279818
2,9,11,12, 0,14, 0.00,60.00,Friday
135,422590068.94236416
3420,422590068.9423642
2,9,11,12, 0,15, 0.00,60.00,Friday
135,427167487.01197714
3420,427167487.0119772
2,9,11,12, 0,16, 0.00,60.00,Friday
135,427885296.47444266
3420,427885296.4744427
2,9,11,12, 0,17, 0.00,60.00,Friday
135,427947193.9758969
3420,427947193.97589695
2,9,11,12, 0,18, 0.00,60.00,Friday
135,340812820.1572819
3420,340812820.1572819
2,9,11,12, 0,19, 0.00,60.00,Friday
135,314165229.32885706
3420,314165229.3288571
2,9,11,12, 0,20, 0.00,60.00,Friday
135,286735649.17235005
3420,286735649.17235005
2,9,11,12, 0,21, 0.00,60.00,Friday
135,237632570.6893263
3420,237632570.68932626
2,9,11,12, 0,22, 0.00,60.00,Friday
135,210665595.38451776
3420,210665595.38451776
2,9,11,12, 0,23, 0.00,60.00,Friday
135,188299078.93256524
3420,188299078.93256524
2,9,11,12, 0,24, 0.00,60.00,Friday
135,72563947.72384587
3420,72563947.72384587
2,10,11,13, 0, 1, 0.00,60.00,Saturday
135,125652131.60546407
3420,125652131.60546407
2,10,11,13, 0, 2, 0.00,60.00,Saturday
135,47088539.76632162
3420,47088539.76632162
2,10,11,13, 0, 3, 0.00,60.00,Saturday
135,133248644.11468387
3420,133248644.11468387
2,10,11,13, 0, 4, 0.00,60.00,Saturday
135,47088379.70955594
3420,47088379.70955593
2,10,11,13, 0, 5, 0.00,60.00,Saturday
135,130916007.32814534
3420,130916007.32814535
2,10,11,13, 0, 6, 0.00,60.00,Saturday
135,47088379.70955594
3420,47088379.70955593
2,10,11,13, 0, 7, 0.00,60.00,Saturday
135,142135152.5373563
3420,142135152.5373563
2,10,11,13, 0, 8, 0.00,60.00,Saturday
135,177410070.86021283
3420,177410070.8602128
2,10,11,13, 0, 9, 0.00,60.00,Saturday
135,225885233.66839457
3420,225885233.6683946
2,10,11,13, 0,10, 0.00,60.00,Saturday
135,239849503.04641923
3420,239849503.04641926
2,10,11,13, 0,11, 0.00,60.00,Saturday
135,248909900.33203822
3420,248909900.33203822
2,10,11,13, 0,12, 0.00,60.00,Saturday
135,277802017.9895151
3420,277802017.98951507
2,10,11,13, 0,13, 0.00,60.00,Saturday
135,250663453.50126392
3420,250663453.50126392
2,10,11,13, 0,14, 0.00,60.00,Saturday
135,253350044.14007622
3420,253350044.1400762
2,10,11,13, 0,15, 0.00,60.00,Saturday
135,260677391.7741364
3420,260677391.77413642
2,10,11,13, 0,16, 0.00,60.00,Saturday
135,268059281.33275953
3420,268059281.33275962
2,10,11,13, 0,17, 0.00,60.00,Saturday
135,256771033.29023266
3420,256771033.29023266
2,10,11,13, 0,18, 0.00,60.00,Saturday
135,265626294.24550068
3420,265626294.2455007
2,10,11,13, 0,19, 0.00,60.00,Saturday
135,241101284.4496008
3420,241101284.44960076
2,10,11,13, 0,20, 0.00,60.00,Saturday
135,50491404.88721671
3420,50491404.8872167
2,10,11,13, 0,21, 0.00,60.00,Saturday
135,151228067.5501582
3420,151228067.5501582
2,10,11,13, 0,22, 0.00,60.00,Saturday
135,49851883.70955594
3420,49851883.709555924
2,10,11,13, 0,23, 0.00,60.00,Saturday
135,137313758.7456003
3420,137313758.74560028
2,10,11,13, 0,24, 0.00,60.00,Saturday
135,49851883.70955594
3420,49851883.709555924
2,11,11,14, 0, 1, 0.00,60.00,Sunday
135,129811911.52945593
3420,129811911.52945594
2,11,11,14, 0, 2, 0.00,60.00,Sunday
135,47088379.70955594
3420,47088379.70955593
2,11,11,14, 0, 3, 0.00,60.00,Sunday
135,127400947.5746069
3420,127400947.57460688
2,11,11,14, 0, 4, 0.00,60.00,Sunday
135,47088379.70955594
3420,47088379.70955593
2,11,11,14, 0, 5, 0.00,60.00,Sunday
135,136430582.1744923
3420,136430582.1744923
2,11,11,14, 0, 6, 0.00,60.00,Sunday
135,47088379.70955594
3420,47088379.70955593
2,11,11,14, 0, 7, 0.00,60.00,Sunday
135,129061914.07300739
3420,129061914.07300739
2,11,11,14, 0, 8, 0.00,60.00,Sunday
135,45965402.11936402
3420,45965402.11936401
2,11,11,14, 0, 9, 0.00,60.00,Sunday
135,142577722.17290378
3420,142577722.1729038
2,11,11,14, 0,10, 0.00,60.00,Sunday
135,45673497.96904588
3420,45673497.96904587
2,11,11,14, 0,11, 0.00,60.00,Sunday
135,167898975.30010474
3420,167898975.30010474
2,11,11,14, 0,12, 0.00,60.00,Sunday
135,45638120.342206605
3420,45638120.342206605
2,11,11,14, 0,13, 0.00,60.00,Sunday
135,196938512.6231882
3420,196938512.6231882
2,11,11,14, 0,14, 0.00,60.00,Sunday
135,45638118.19243602
3420,45638118.19243602
2,11,11,14, 0,15, 0.00,60.00,Sunday
135,212874307.59707353
3420,212874307.59707353
2,11,11,14, 0,16, 0.00,60.00,Sunday
135,45638118.19243601
3420,45638118.19243602
2,11,11,14, 0,17, 0.00,60.00,Sunday
135,238003746.25342003
3420,238003746.25342005
2,11,11,14, 0,18, 0.00,60.00,Sunday
135,45732228.7712991
3420,45732228.77129912
2,11,11,14, 0,19, 0.00,60.00,Sunday
135,185564251.41435793
3420,185564251.4143579
2,11,11,14, 0,20, 0.00,60.00,Sunday
135,49852043.76632162
3420,49852043.766321614
2,11,11,14, 0,21, 0.00,60.00,Sunday
135,142981621.72371426
3420,142981621.72371426
2,11,11,14, 0,22, 0.00,60.00,Sunday
135,49851883.70955594
3420,49851883.70955593
2,11,11,14, 0,23, 0.00,60.00,Sunday
135,134444715.57579607
3420,134444715.57579604
2,11,11,14, 0,24, 0.00,60.00,Sunday
135,49851883.70955594
3420,49851883.70955593
2,12,11,15, 0, 1, 0.00,60.00,Monday
135,135963565.82010514
3420,135963565.82010514
2,12,11,15, 0, 2, 0.00,60.00,Monday
135,58339004.11373618
3420,58339004.11373619
2,12,11,15, 0, 3, 0.00,60.00,Monday
135,130914259.68293568
3420,130914259.68293571
2,12,11,15, 0, 4, 0.00,60.00,Monday
135,58339004.11373618
3420,58339004.11373619
2,12,11,15, 0, 5, 0.00,60.00,Monday
135,128324944.42141835
3420,128324944.42141835
2,12,11,15, 0, 6, 0.00,60.00,Monday
135,58339004.11373618
3420,58339004.11373619
2,12,11,15, 0, 7, 0.00,60.00,Monday
135,142164272.17667916
3420,142164272.17667916
2,12,11,15, 0, 8, 0.00,60.00,Monday
135,179930870.39695144
3420,179930870.39695144
2,12,11,15, 0, 9, 0.00,60.00,Monday
135,362234438.29336894
3420,362234438.2933689
2,12,11,15, 0,10, 0.00,60.00,Monday
135,385275483.3277567
3420,385275483.3277567
2,12,11,15, 0,11, 0.00,60.00,Monday
135,404282171.2426676
3420,404282171.2426676
2,12,11,15, 0,12, 0.00,60.00,Monday
135,414220569.02856004
3420,414220569.0285601
2,12,11,15, 0,13, 0.00,60.00,Monday
135,395124837.51411456
3420,395124837.5141146
2,12,11,15, 0,14, 0.00,60.00,Monday
135,420989367.2171233
3420,420989367.2171233
2,12,11,15, 0,15, 0.00,60.00,Monday
135,427660530.49103415
3420,427660530.4910342
2,12,11,15, 0,16, 0.00,60.00,Monday
135,428096218.3493055
3420,428096218.34930557
2,12,11,15, 0,17, 0.00,60.00,Monday
135,429862008.5955916
3420,429862008.59559166
2,12,11,15, 0,18, 0.00,60.00,Monday
135,342694747.17657787
3420,342694747.1765778
2,12,11,15, 0,19, 0.00,60.00,Monday
135,311675938.5315668
3420,311675938.5315668
2,12,11,15, 0,20, 0.00,60.00,Monday
135,267148821.19574594
3420,267148821.19574594
2,12,11,15, 0,21, 0.00,60.00,Monday
135,248596510.8090419
3420,248596510.80904186
2,12,11,15, 0,22, 0.00,60.00,Monday
135,209775224.981081
3420,209775224.98108104
2,12,11,15, 0,23, 0.00,60.00,Monday
135,183964551.77205113
3420,183964551.77205113
2,12,11,15, 0,24, 0.00,60.00,Monday
135,72563947.72384587
3420,72563947.72384587
2,13,11,16, 0, 1, 0.00,60.00,Tuesday
135,143850418.43059966
3420,143850418.43059963
2,13,11,16, 0, 2, 0.00,60.00,Tuesday
135,58339223.49717496
3420,58339223.497174956
2,13,11,16, 0, 3, 0.00,60.00,Tuesday
135,143404990.810826
3420,143404990.81082597
2,13,11,16, 0, 4, 0.00,60.00,Tuesday
135,58339004.11373618
3420,58339004.113736175
2,13,11,16, 0, 5, 0.00,60.00,Tuesday
135,142835104.78564754
3420,142835104.78564757
2,13,11,16, 0, 6, 0.00,60.00,Tuesday
135,58339004.11373618
3420,58339004.11373619
2,13,11,16, 0, 7, 0.00,60.00,Tuesday
135,141765010.61700213
3420,141765010.6170021
2,13,11,16, 0, 8, 0.00,60.00,Tuesday
135,181281708.82879633
3420,181281708.82879633
2,13,11,16, 0, 9, 0.00,60.00,Tuesday
135,352546298.04335004
3420,352546298.04335
2,13,11,16, 0,10, 0.00,60.00,Tuesday
135,375174675.59804386
3420,375174675.5980438
2,13,11,16, 0,11, 0.00,60.00,Tuesday
135,384399180.87037635
3420,384399180.87037635
2,13,11,16, 0,12, 0.00,60.00,Tuesday
135,397781504.9014411
3420,397781504.9014411
2,13,11,16, 0,13, 0.00,60.00,Tuesday
135,369800126.1606966
3420,369800126.16069674
2,13,11,16, 0,14, 0.00,60.00,Tuesday
135,410629696.39972
3420,410629696.3997202
2,13,11,16, 0,15, 0.00,60.00,Tuesday
135,410794063.99403924
3420,410794063.99403924
2,13,11,16, 0,16, 0.00,60.00,Tuesday
135,412531225.1922795
3420,412531225.1922795
2,13,11,16, 0,17, 0.00,60.00,Tuesday
135,404451211.0704072
3420,404451211.0704073
2,13,11,16, 0,18, 0.00,60.00,Tuesday
135,279450786.93774354
3420,279450786.93774354
2,13,11,16, 0,19, 0.00,60.00,Tuesday
135,232364357.09459257
3420,232364357.0945926
2,13,11,16, 0,20, 0.00,60.00,Tuesday
135,215843211.17671046
3420,215843211.1767105
2,13,11,16, 0,21, 0.00,60.00,Tuesday
135,188932597.28330028
3420,188932597.2833003
2,13,11,16, 0,22, 0.00,60.00,Tuesday
135,182518125.7702662
3420,182518125.77026623
2,13,11,16, 0,23, 0.00,60.00,Tuesday
135,156333652.4784181
3420,156333652.47841814
2,13,11,16, 0,24, 0.00,60.00,Tuesday
135,72563947.72384587
3420,72563947.72384587
2,14,11,17, 0, 1, 0.00,60.00,Wednesday
135,141536419.9336461
3420,141536419.9336461
2,14,11,17, 0, 2, 0.00,60.00,Wednesday
135,58339223.49717496
3420,58339223.49717496
2,14,11,17, 0, 3, 0.00,60.00,Wednesday
135,143333781.3393658
3420,143333781.3393658
2,14,11,17, 0, 4, 0.00,60.00,Wednesday
135,58339004.11373618
3420,58339004.11373618
2,14,11,17, 0, 5, 0.00,60.00,Wednesday
135,130957453.88373989
3420,130957453.88373989
2,14,11,17, 0, 6, 0.00,60.00,Wednesday
135,58339004.11373618
3420,58339004.11373618
2,14,11,17, 0, 7, 0.00,60.00,Wednesday
135,131659789.30117373
3420,131659789.30117376
2,14,11,17, 0, 8, 0.00,60.00,Wednesday
135,153312416.5071914
3420,153312416.5071914
2,14,11,17, 0, 9, 0.00,60.00,Wednesday
135,348196776.91486293
3420,348196776.914863
2,14,11,17, 0,10, 0.00,60.00,Wednesday
135,397771806.9928179
3420,397771806.9928179
2,14,11,17, 0,11, 0.00,60.00,Wednesday
135,400603952.2365224
3420,400603952.2365224
2,14,11,17, 0,12, 0.00,60.00,Wednesday
135,414931021.5419624
3420,414931021.5419624
2,14,11,17, 0,13, 0.00,60.00,Wednesday
135,392589497.27113175
3420,392589497.27113175
2,14,11,17, 0,14, 0.00,60.00,Wednesday
135,425671952.80610937
3420,425671952.80610937
2,14,11,17, 0,15, 0.00,60.00,Wednesday
135,424944455.95092905
3420,424944455.95092916
2,14,11,17, 0,16, 0.00,60.00,Wednesday
135,421888472.8437823
3420,421888472.84378237
2,14,11,17, 0,17, 0.00,60.00,Wednesday
135,430880552.3828716
3420,430880552.3828716
2,14,11,17, 0,18, 0.00,60.00,Wednesday
135,335416432.92344296
3420,335416432.923443
2,14,11,17, 0,19, 0.00,60.00,Wednesday
135,287905341.76922286
3420,287905341.7692229
2,14,11,17, 0,20, 0.00,60.00,Wednesday
135,240502044.71222532
3420,240502044.71222538
2,14,11,17, 0,21, 0.00,60.00,Wednesday
135,208188853.7251641
3420,208188853.72516406
2,14,11,17, 0,22, 0.00,60.00,Wednesday
135,188989995.23954424
3420,188989995.23954424
2,14,11,17, 0,23, 0.00,60.00,Wednesday
135,164550718.25766838
3420,164550718.2576684
2,14,11,17, 0,24, 0.00,60.00,Wednesday
135,72563947.72384587
3420,72563947.72384587
2,15,11,18, 0, 1, 0.00,60.00,Thursday
135,144489371.67212343
3420,144489371.67212343
2,15,11,18, 0, 2, 0.00,60.00,Thursday
135,58339223.49717496
3420,58339223.49717496
2,15,11,18, 0, 3, 0.00,60.00,Thursday
135,142889923.28032243
3420,142889923.28032246
2,15,11,18, 0, 4, 0.00,60.00,Thursday
135,58339004.11373618
3420,58339004.11373618
2,15,11,18, 0, 5, 0.00,60.00,Thursday
135,132916943.45905648
3420,132916943.4590565
2,15,11,18, 0, 6, 0.00,60.00,Thursday
135,58339004.11373618
3420,58339004.11373618
2,15,11,18, 0, 7, 0.00,60.00,Thursday
135,131920091.4597804
3420,131920091.4597804
2,15,11,18, 0, 8, 0.00,60.00,Thursday
135,158058170.93261003
3420,158058170.93261006
2,15,11,18, 0, 9, 0.00,60.00,Thursday
135,351613305.116856
3420,351613305.1168559
2,15,11,18, 0,10, 0.00,60.00,Thursday
135,374573607.19166267
3420,374573607.19166267
2,15,11,18, 0,11, 0.00,60.00,Thursday
135,396797364.1699363
3420,396797364.1699363
2,15,11,18, 0,12, 0.00,60.00,Thursday
135,415068890.6143802
3420,415068890.61438024
2,15,11,18, 0,13, 0.00,60.00,Thursday
135,400761314.302687
3420,400761314.30268705
2,15,11,18, 0,14, 0.00,60.00,Thursday
135,424557433.80120295
3420,424557433.80120295
2,15,11,18, 0,15, 0.00,60.00,Thursday
135,427997568.9635704
3420,427997568.9635705
2,15,11,18, 0,16, 0.00,60.00,Thursday
135,431667760.4586564
3420,431667760.45865643
2,15,11,18, 0,17, 0.00,60.00,Thursday
135,432531365.9507819
3420,432531365.95078194
2,15,11,18, 0,18, 0.00,60.00,Thursday
135,352095555.0833395
3420,352095555.0833395
2,15,11,18, 0,19, 0.00,60.00,Thursday
135,328675020.89314646
3420,328675020.8931464