Program Version,EnergyPlus, Version 23.1.0-87ed9199d4, YMD=2026.02.01 13:01
1,5,Environment Title[],Latitude[deg],Longitude[deg],Time Zone[],Elevation[m]
2,8,Day of Simulation[],Month[],Day of Month[],DST Indicator[1=yes 0=no],Hour[],StartMinute[],EndMinute[],DayType
3,5,Cumulative Day of Simulation[],Month[],Day of Month[],DST Indicator[1=yes 0=no],DayType  ! When Daily Report Variables Requested
4,2,Cumulative Days of Simulation[],Month[]  ! When Monthly Report Variables Requested
5,1,Cumulative Days of Simulation[] ! When Run Period Report Variables Requested
6,1,Calendar Year of Simulation[] ! When Annual Report Variables Requested
1945,1,PERIMETER_BOT_ZN_1,Zone Mean Air Temperature [C] !TimeStep
3320,1,Whole Building,Facility Total Purchased Electricity Energy [J] !TimeStep
End of Data Dictionary
1,RUNPERIOD 1,  -2.16, -79.88,  -5.00,   5.80
2,1,11,10, 0, 1, 0.00,60.00,Wednesday
1945,24.32145466277711
3320,148989689.93334052
2,1,11,10, 0, 2, 0.00,60.00,Wednesday
1945,26.647207913959367
3320,58339223.497174956
2,1,11,10, 0, 3, 0.00,60.00,Wednesday
1945,24.290029778783264
3320,143717811.45084846
2,1,11,10, 0, 4, 0.00,60.00,Wednesday
1945,26.417729075552177
3320,58339004.113736175
2,1,11,10, 0, 5, 0.00,60.00,Wednesday
1945,24.18630624152487
3320,136778247.95390287
2,1,11,10, 0, 6, 0.00,60.00,Wednesday
1945,26.18917122368944
3320,58339004.113736175
2,1,11,10, 0, 7, 0.00,60.00,Wednesday
1945,24.185195477593766
3320,145627050.28371328
2,1,11,10, 0, 8, 0.00,60.00,Wednesday
1945,24.129487851885912
3320,196786448.6324736
2,1,11,10, 0, 9, 0.00,60.00,Wednesday
1945,25.447857931849615
3320,378474166.55224305
2,1,11,10, 0,10, 0.00,60.00,Wednesday
1945,26.224992789012987
3320,398046474.59981275
2,1,11,10, 0,11, 0.00,60.00,Wednesday
1945,26.758366979806496
3320,403373763.2414646
2,1,11,10, 0,12, 0.00,60.00,Wednesday
1945,27.199064074416786
3320,412342098.49669266
2,1,11,10, 0,13, 0.00,60.00,Wednesday
1945,27.68872396283012
3320,402062593.2209636
2,1,11,10, 0,14, 0.00,60.00,Wednesday
1945,28.109057507367545
3320,421045148.27025473
2,1,11,10, 0,15, 0.00,60.00,Wednesday
1945,28.441110720993564
3320,424597687.4028685
2,1,11,10, 0,16, 0.00,60.00,Wednesday
1945,28.603113108325232
3320,427959523.3728988
2,1,11,10, 0,17, 0.00,60.00,Wednesday
1945,28.33132170782685
3320,425866805.4894647
2,1,11,10, 0,18, 0.00,60.00,Wednesday
1945,28.576221276758538
3320,341864222.2288364
2,1,11,10, 0,19, 0.00,60.00,Wednesday
1945,26.39319912442039
3320,324585800.0176609
2,1,11,10, 0,20, 0.00,60.00,Wednesday
1945,26.016077701786266
3320,302485187.3531116
2,1,11,10, 0,21, 0.00,60.00,Wednesday
1945,25.52272122319956
3320,241949570.23190305
2,1,11,10, 0,22, 0.00,60.00,Wednesday
1945,25.238541016568927
3320,228828043.03224623
2,1,11,10, 0,23, 0.00,60.00,Wednesday
1945,24.98482712771886
3320,192933447.03014964
2,1,11,10, 0,24, 0.00,60.00,Wednesday
1945,27.014827450789543
3320,72563947.72384587
2,2,11,11, 0, 1, 0.00,60.00,Holiday
1945,24.307086967995335
3320,140506117.20432806
2,2,11,11, 0, 2, 0.00,60.00,Holiday
1945,26.648009044122826
3320,47088539.766321614
2,2,11,11, 0, 3, 0.00,60.00,Holiday
1945,24.285499096979933
3320,139142801.76731977
2,2,11,11, 0, 4, 0.00,60.00,Holiday
1945,26.428296698939633
3320,47088379.70955593
2,2,11,11, 0, 5, 0.00,60.00,Holiday
1945,24.30541940818796
3320,135834449.92047882
2,2,11,11, 0, 6, 0.00,60.00,Holiday
1945,26.218136800897966
3320,47088379.70955593
2,2,11,11, 0, 7, 0.00,60.00,Holiday
1945,24.209565068381135
3320,136939344.1329443
2,2,11,11, 0, 8, 0.00,60.00,Holiday
1945,26.49852369914819
3320,45742689.79364603
2,2,11,11, 0, 9, 0.00,60.00,Holiday
1945,24.605726578602557
3320,169310763.0223925
2,2,11,11, 0,10, 0.00,60.00,Holiday
1945,27.580141109679687
3320,45638118.192436
2,2,11,11, 0,11, 0.00,60.00,Holiday
1945,25.90549378139991
3320,204708855.14039648
2,2,11,11, 0,12, 0.00,60.00,Holiday
1945,28.903854157103233
3320,45638118.19243602
2,2,11,11, 0,13, 0.00,60.00,Holiday
1945,26.44762820929426
3320,221600865.6400639
2,2,11,11, 0,14, 0.00,60.00,Holiday
1945,29.615981127116303
3320,45638118.19243601
2,2,11,11, 0,15, 0.00,60.00,Holiday
1945,27.062666489712033
3320,238724600.49231023
2,2,11,11, 0,16, 0.00,60.00,Holiday
1945,29.87039324924316
3320,45638118.192436
2,2,11,11, 0,17, 0.00,60.00,Holiday
1945,26.56133860407516
3320,240502870.0483542
2,2,11,11, 0,18, 0.00,60.00,Holiday
1945,29.324843152884316
3320,45687388.83309893
2,2,11,11, 0,19, 0.00,60.00,Holiday
1945,25.52945654014195
3320,218312249.37512276
2,2,11,11, 0,20, 0.00,60.00,Holiday
1945,27.83880158489157
3320,49852043.76632161
2,2,11,11, 0,21, 0.00,60.00,Holiday
1945,24.773210430176032
3320,170681437.60922754
2,2,11,11, 0,22, 0.00,60.00,Holiday
1945,27.09903996360231
3320,49851883.709555924
2,2,11,11, 0,23, 0.00,60.00,Holiday
1945,24.45799821395533
3320,140481234.78605983
2,2,11,11, 0,24, 0.00,60.00,Holiday
1945,26.715882643261928
3320,49851883.709555924
2,3,11,12, 0, 1, 0.00,60.00,Friday
1945,24.298427477530385
3320,148403249.56607607
2,3,11,12, 0, 2, 0.00,60.00,Friday
1945,26.423157391742624
3320,58339004.113736175
2,3,11,12, 0, 3, 0.00,60.00,Friday
1945,24.242857465288473
3320,141798542.61256018
2,3,11,12, 0, 4, 0.00,60.00,Friday
1945,26.21907670902179
3320,58339004.113736175
2,3,11,12, 0, 5, 0.00,60.00,Friday
1945,24.152759337869202
3320,138661642.4598673
2,3,11,12, 0, 6, 0.00,60.00,Friday
1945,26.057565472024734
3320,58339004.113736175
2,3,11,12, 0, 7, 0.00,60.00,Friday
1945,24.19853794348426
3320,145682978.76437727
2,3,11,12, 0, 8, 0.00,60.00,Friday
1945,24.094578985633042
3320,197066670.43143436
2,3,11,12, 0, 9, 0.00,60.00,Friday
1945,25.433848448444632
3320,377455495.75954604
2,3,11,12, 0,10, 0.00,60.00,Friday
1945,26.19899537751721
3320,393207482.2091263
2,3,11,12, 0,11, 0.00,60.00,Friday
1945,26.799837791235923
3320,404041891.6345768
2,3,11,12, 0,12, 0.00,60.00,Friday
1945,27.281430032853496
3320,408048344.7173482
2,3,11,12, 0,13, 0.00,60.00,Friday
1945,28.07892977540834
3320,404775410.5206498
2,3,11,12, 0,14, 0.00,60.00,Friday
1945,28.217399420145625
3320,422689079.21114975
2,3,11,12, 0,15, 0.00,60.00,Friday
1945,28.60811321819582
3320,427248744.8335718
2,3,11,12, 0,16, 0.00,60.00,Friday
1945,28.725117701720965
3320,427910016.5258784
2,3,11,12, 0,17, 0.00,60.00,Friday
1945,28.608408216262696
3320,427972823.93888116
2,3,11,12, 0,18, 0.00,60.00,Friday
1945,28.62026644302322
3320,340851177.24078393
2,3,11,12, 0,19, 0.00,60.00,Friday
1945,26.41664063516356
3320,314888735.7247543
2,3,11,12, 0,20, 0.00,60.00,Friday
1945,26.07601262663191
3320,287755123.98877364
2,3,11,12, 0,21, 0.00,60.00,Friday
1945,25.655455356592235
3320,252794970.86812687
2,3,11,12, 0,22, 0.00,60.00,Friday
1945,25.335460467496684
3320,214571235.90216833
2,3,11,12, 0,23, 0.00,60.00,Friday
1945,25.09906937426472
3320,189650930.67467383
2,3,11,12, 0,24, 0.00,60.00,Friday
1945,27.091028746202525
3320,72563947.72384587
2,4,11,13, 0, 1, 0.00,60.00,Saturday
1945,24.33830275809899
3320,128072820.24590257
2,4,11,13, 0, 2, 0.00,60.00,Saturday
1945,26.659181325573233
3320,47088539.766321614
2,4,11,13, 0, 3, 0.00,60.00,Saturday
1945,24.297833264616273
3320,132233516.0589069
2,4,11,13, 0, 4, 0.00,60.00,Saturday
1945,26.458665621287324
3320,47088379.70955593
2,4,11,13, 0, 5, 0.00,60.00,Saturday
1945,24.19888226909326
3320,131396789.02126198
2,4,11,13, 0, 6, 0.00,60.00,Saturday
1945,26.228237711722965
3320,47088379.70955593
2,4,11,13, 0, 7, 0.00,60.00,Saturday
1945,24.21832985389817
3320,145917070.0224259
2,4,11,13, 0, 8, 0.00,60.00,Saturday
1945,24.868936142713473
3320,179945970.98755372
2,4,11,13, 0, 9, 0.00,60.00,Saturday
1945,25.46775358120137
3320,226281131.56194183
2,4,11,13, 0,10, 0.00,60.00,Saturday
1945,26.001023604619977
3320,243498595.37911814
2,4,11,13, 0,11, 0.00,60.00,Saturday
1945,26.539963370396553
3320,259724714.55236015
2,4,11,13, 0,12, 0.00,60.00,Saturday
1945,27.10885844653655
3320,277644330.7178198
2,4,11,13, 0,13, 0.00,60.00,Saturday
1945,27.164215467104096
3320,243410636.60659093
2,4,11,13, 0,14, 0.00,60.00,Saturday
1945,27.46347455797472
3320,252706780.22554344
2,4,11,13, 0,15, 0.00,60.00,Saturday
1945,27.660853769907675
3320,264859911.46608353
2,4,11,13, 0,16, 0.00,60.00,Saturday
1945,27.63983687686849
3320,268677231.45674634
2,4,11,13, 0,17, 0.00,60.00,Saturday
1945,27.452861715765835
3320,261766252.42043954
2,4,11,13, 0,18, 0.00,60.00,Saturday
1945,27.095470334251566
3320,259325111.77687538
2,4,11,13, 0,19, 0.00,60.00,Saturday
1945,25.989675571327133
3320,243252049.1701908
2,4,11,13, 0,20, 0.00,60.00,Saturday
1945,28.05613352708334
3320,50491404.8872167
2,4,11,13, 0,21, 0.00,60.00,Saturday
1945,24.877730922565924
3320,149011968.77769265
2,4,11,13, 0,22, 0.00,60.00,Saturday
1945,27.21930799268389
3320,49851883.709555924
2,4,11,13, 0,23, 0.00,60.00,Saturday
1945,24.40517487195612
3320,137913538.21871224
2,4,11,13, 0,24, 0.00,60.00,Saturday
1945,26.84896063586282
3320,49851883.709555924
2,5,11,14, 0, 1, 0.00,60.00,Sunday
1945,24.330623745663274
3320,130067221.05743667
2,5,11,14, 0, 2, 0.00,60.00,Sunday
1945,26.479020457622916
3320,47088379.70955593
2,5,11,14, 0, 3, 0.00,60.00,Sunday
1945,24.201411355900852
3320,128308908.53843114
2,5,11,14, 0, 4, 0.00,60.00,Sunday
1945,26.29859550089627
3320,47088379.70955593
2,5,11,14, 0, 5, 0.00,60.00,Sunday
1945,24.24379047466151
3320,131951376.11040281
2,5,11,14, 0, 6, 0.00,60.00,Sunday
1945,26.15020642775962
3320,47088379.70955593
2,5,11,14, 0, 7, 0.00,60.00,Sunday
1945,24.196058589375752
3320,126058192.70492545
2,5,11,14, 0, 8, 0.00,60.00,Sunday
1945,26.232031544478502
3320,45965055.10368323
2,5,11,14, 0, 9, 0.00,60.00,Sunday
1945,24.224287903457775
3320,143168919.10144192
2,5,11,14, 0,10, 0.00,60.00,Sunday
1945,26.591308450165123
3320,45673546.0219036
2,5,11,14, 0,11, 0.00,60.00,Sunday
1945,24.401684956692367
3320,166578839.32996577
2,5,11,14, 0,12, 0.00,60.00,Sunday
1945,27.096069640942634
3320,45638118.19243601
2,5,11,14, 0,13, 0.00,60.00,Sunday
1945,24.883438970347562
3320,194320539.76325965
2,5,11,14, 0,14, 0.00,60.00,Sunday
1945,27.809113104704394
3320,45638118.19243602
2,5,11,14, 0,15, 0.00,60.00,Sunday
1945,25.557452428863773
3320,213120872.39542064
2,5,11,14, 0,16, 0.00,60.00,Sunday
1945,28.158534951374573
3320,45638118.19243602
2,5,11,14, 0,17, 0.00,60.00,Sunday
1945,25.231856624665973
3320,237256708.05968103
2,5,11,14, 0,18, 0.00,60.00,Sunday
1945,27.952786349264727
3320,45733104.19318972
2,5,11,14, 0,19, 0.00,60.00,Sunday
1945,24.486916114013724
3320,186719298.287721
2,5,11,14, 0,20, 0.00,60.00,Sunday
1945,26.716490003604093
3320,49852043.766321614
2,5,11,14, 0,21, 0.00,60.00,Sunday
1945,24.22241924288073
3320,143498724.48884892
2,5,11,14, 0,22, 0.00,60.00,Sunday
1945,26.2590486807827
3320,49851883.70955593
2,5,11,14, 0,23, 0.00,60.00,Sunday
1945,24.155351912198654
3320,134831169.84397686
2,5,11,14, 0,24, 0.00,60.00,Sunday
1945,25.96847564422817
3320,49851883.70955593
2,6,11,15, 0, 1, 0.00,60.00,Monday
1945,24.11507587772267
3320,135776256.48334527
2,6,11,15, 0, 2, 0.00,60.00,Monday
1945,25.8157136791597
3320,58339004.113736175
2,6,11,15, 0, 3, 0.00,60.00,Monday
1945,24.124836022589314
3320,137360343.12621132
2,6,11,15, 0, 4, 0.00,60.00,Monday
1945,25.65505055823533
3320,58339004.11373619
2,6,11,15, 0, 5, 0.00,60.00,Monday
1945,24.065867133404844
3320,129482623.62561154
2,6,11,15, 0, 6, 0.00,60.00,Monday
1945,25.51962645264396
3320,58339004.11373619
2,6,11,15, 0, 7, 0.00,60.00,Monday
1945,24.051629840582287
3320,142376295.7601172
2,6,11,15, 0, 8, 0.00,60.00,Monday
1945,23.998813034795248
3320,180928631.50410923
2,6,11,15, 0, 9, 0.00,60.00,Monday
1945,25.15719774498812
3320,362142357.67171687
2,6,11,15, 0,10, 0.00,60.00,Monday
1945,25.99479412714261
3320,384948735.73678553
2,6,11,15, 0,11, 0.00,60.00,Monday
1945,26.658486386115605
3320,403449667.03822315
2,6,11,15, 0,12, 0.00,60.00,Monday
1945,27.314984562517964
3320,414191937.3928365
2,6,11,15, 0,13, 0.00,60.00,Monday
1945,28.027044665762034
3320,395575910.3856709
2,6,11,15, 0,14, 0.00,60.00,Monday
1945,28.002581669157518
3320,421019559.08282214
2,6,11,15, 0,15, 0.00,60.00,Monday
1945,28.250566890963295
3320,427675237.6075178
2,6,11,15, 0,16, 0.00,60.00,Monday
1945,28.205884217462792
3320,428110740.9344677
2,6,11,15, 0,17, 0.00,60.00,Monday
1945,28.294930718260684
3320,429871545.46591854
2,6,11,15, 0,18, 0.00,60.00,Monday
1945,28.37080402774847
3320,342712945.21917
2,6,11,15, 0,19, 0.00,60.00,Monday
1945,25.809872326714963
3320,310897920.51613694
2,6,11,15, 0,20, 0.00,60.00,Monday
1945,25.682056654299352
3320,270912901.0937796
2,6,11,15, 0,21, 0.00,60.00,Monday
1945,25.308300928176994
3320,246457097.87188667
2,6,11,15, 0,22, 0.00,60.00,Monday
1945,25.010026140677756
3320,225558577.75563645
2,6,11,15, 0,23, 0.00,60.00,Monday
1945,24.77777245098013
3320,191254664.76592338
2,6,11,15, 0,24, 0.00,60.00,Monday
1945,26.83244170999066
3320,72563947.72384587
2,7,11,16, 0, 1, 0.00,60.00,Tuesday
1945,24.259255322198616
3320,144803330.53445125
2,7,11,16, 0, 2, 0.00,60.00,Tuesday
1945,26.447099096254767
3320,58339223.497174956
2,7,11,16, 0, 3, 0.00,60.00,Tuesday
1945,24.19436721281462
3320,144260071.28904158
2,7,11,16, 0, 4, 0.00,60.00,Tuesday
1945,26.18022621623216
3320,58339004.113736175
2,7,11,16, 0, 5, 0.00,60.00,Tuesday
1945,24.293361093689327
3320,143632236.90658948
2,7,11,16, 0, 6, 0.00,60.00,Tuesday
1945,26.06880554842416
3320,58339004.113736175
2,7,11,16, 0, 7, 0.00,60.00,Tuesday
1945,24.169311370542324
3320,145872145.823352
2,7,11,16, 0, 8, 0.00,60.00,Tuesday
1945,24.005772584277345
3320,182355203.36778373
2,7,11,16, 0, 9, 0.00,60.00,Tuesday
1945,24.913369723650174
3320,352328253.1933619
2,7,11,16, 0,10, 0.00,60.00,Tuesday
1945,25.42068004407816
3320,381939814.8046781
2,7,11,16, 0,11, 0.00,60.00,Tuesday
1945,25.948614449666866
3320,391313802.24024844
2,7,11,16, 0,12, 0.00,60.00,Tuesday
1945,26.051989892693094
3320,398131851.91543466
2,7,11,16, 0,13, 0.00,60.00,Tuesday
1945,25.735248637514147
3320,364849237.21912336
2,7,11,16, 0,14, 0.00,60.00,Tuesday
1945,26.366345915713016
3320,410369672.3735113
2,7,11,16, 0,15, 0.00,60.00,Tuesday
1945,26.28351776686464
3320,410761981.6141604
2,7,11,16, 0,16, 0.00,60.00,Tuesday
1945,26.126829917149365
3320,412534890.60666525
2,7,11,16, 0,17, 0.00,60.00,Tuesday
1945,25.743408847878833
3320,404498372.1569624
2,7,11,16, 0,18, 0.00,60.00,Tuesday
1945,24.995842727347465
3320,281075760.9663969
2,7,11,16, 0,19, 0.00,60.00,Tuesday
1945,24.63509091502722
3320,231577408.22384608
2,7,11,16, 0,20, 0.00,60.00,Tuesday
1945,24.382120597247585
3320,210206011.2550462
2,7,11,16, 0,21, 0.00,60.00,Tuesday
1945,24.203248316717602
3320,188320998.44661364
2,7,11,16, 0,22, 0.00,60.00,Tuesday
1945,24.03110215468978
3320,181694798.69471282
2,7,11,16, 0,23, 0.00,60.00,Tuesday
1945,24.399902092382646
3320,156039080.08793288
2,7,11,16, 0,24, 0.00,60.00,Tuesday
1945,25.90950023153097
3320,72563947.72384587
2,8,11,17, 0, 1, 0.00,60.00,Wednesday
1945,24.14489697797538
3320,142708100.55496094
2,8,11,17, 0, 2, 0.00,60.00,Wednesday
1945,25.75555149168726
3320,58339223.49717496
2,8,11,17, 0, 3, 0.00,60.00,Wednesday
1945,24.108460381346205
3320,143806072.2697713
2,8,11,17, 0, 4, 0.00,60.00,Wednesday
1945,25.632141380749218
3320,58339004.11373618
2,8,11,17, 0, 5, 0.00,60.00,Wednesday
1945,24.04409686312104
3320,131002270.50579208
2,8,11,17, 0, 6, 0.00,60.00,Wednesday
1945,25.45984421657691
3320,58339004.11373618
2,8,11,17, 0, 7, 0.00,60.00,Wednesday
1945,24.118770596113688
3320,128148514.49706244
2,8,11,17, 0, 8, 0.00,60.00,Wednesday
1945,23.999158684621232
3320,153674564.4507185
2,8,11,17, 0, 9, 0.00,60.00,Wednesday
1945,24.668091542592506
3320,352086129.51390153
2,8,11,17, 0,10, 0.00,60.00,Wednesday
1945,25.51226020058849
3320,402139029.5707875
2,8,11,17, 0,11, 0.00,60.00,Wednesday
1945,26.065055640410975
3320,407477936.9081868
2,8,11,17, 0,12, 0.00,60.00,Wednesday
1945,26.386827792846912
3320,416017102.68308973
2,8,11,17, 0,13, 0.00,60.00,Wednesday
1945,27.635154314245288
3320,389734209.1650417
2,8,11,17, 0,14, 0.00,60.00,Wednesday
1945,26.974650616069724
3320,425697531.30192316
2,8,11,17, 0,15, 0.00,60.00,Wednesday
1945,26.885320672430208
3320,424903187.044227
2,8,11,17, 0,16, 0.00,60.00,Wednesday
1945,26.65702231944929
3320,421903849.1820398
2,8,11,17, 0,17, 0.00,60.00,Wednesday
1945,27.0474134558508
3320,430898953.4439127
2,8,11,17, 0,18, 0.00,60.00,Wednesday
1945,26.970176583709183
3320,330743161.90212834
2,8,11,17, 0,19, 0.00,60.00,Wednesday
1945,24.934754613851915
3320,287071699.22850394
2,8,11,17, 0,20, 0.00,60.00,Wednesday
1945,24.71690805676956
3320,240976324.66143867
2,8,11,17, 0,21, 0.00,60.00,Wednesday
1945,24.479955702772717
3320,209708063.05119836
2,8,11,17, 0,22, 0.00,60.00,Wednesday
1945,24.20329645660137
3320,191235356.30985636
2,8,11,17, 0,23, 0.00,60.00,Wednesday
1945,24.385795239932165
3320,165712372.33876434
2,8,11,17, 0,24, 0.00,60.00,Wednesday
1945,26.001027172953634
3320,72563947.72384587
2,9,11,18, 0, 1, 0.00,60.00,Thursday
1945,24.166298355690756
3320,144600738.20233795
2,9,11,18, 0, 2, 0.00,60.00,Thursday
1945,25.820939682922024
3320,58339223.49717496
2,9,11,18, 0, 3, 0.00,60.00,Thursday
1945,24.09206405277244
3320,136959623.3948604
2,9,11,18, 0, 4, 0.00,60.00,Thursday
1945,25.632724352331916
3320,58339004.11373618
2,9,11,18, 0, 5, 0.00,60.00,Thursday
1945,24.056691802910834
3320,132684799.48307106
2,9,11,18, 0, 6, 0.00,60.00,Thursday
1945,25.489087871627703
3320,58339004.11373618
2,9,11,18, 0, 7, 0.00,60.00,Thursday
1945,24.030026501434026
3320,131832061.0586388
2,9,11,18, 0, 8, 0.00,60.00,Thursday
1945,23.99905035258895
3320,150808398.09955212
2,9,11,18, 0, 9, 0.00,60.00,Thursday
1945,24.61615603694421
3320,352443373.32565546
2,9,11,18, 0,10, 0.00,60.00,Thursday
1945,25.402981655322378
3320,371939441.37396735
2,9,11,18, 0,11, 0.00,60.00,Thursday
1945,26.22737003686582
3320,398167775.86938184
2,9,11,18, 0,12, 0.00,60.00,Thursday
1945,26.817043824940306
3320,416389785.02250314
2,9,11,18, 0,13, 0.00,60.00,Thursday
1945,27.76407381605292
3320,394235460.0490719
2,9,11,18, 0,14, 0.00,60.00,Thursday
1945,27.77828223296424
3320,424591681.7265185
2,9,11,18, 0,15, 0.00,60.00,Thursday
1945,27.979708956192958
3320,428024207.3966471
2,9,11,18, 0,16, 0.00,60.00,Thursday
1945,27.987379774597173
3320,431688495.1611793
2,9,11,18, 0,17, 0.00,60.00,Thursday
1945,27.58550692048955
3320,432546384.46194303
2,9,11,18, 0,18, 0.00,60.00,Thursday
1945,28.727073192502033
3320,352091742.4927194
2,9,11,18, 0,19, 0.00,60.00,Thursday
1945,25.43322739926809
3320,330318536.5310383
2,9,11,18, 0,20, 0.00,60.00,Thursday
1945,25.308219741608823
3320,275935099.41360015
2,9,11,18, 0,21, 0.00,60.00,Thursday
1945,24.90120207731499
3320,230419464.60738724
2,9,11,18, 0,22, 0.00,60.00,Thursday
1945,24.66302344839079
3320,210239615.14899492
2,9,11,18, 0,23, 0.00,60.00,Thursday
1945,24.375042467480267
3320,177551051.51861972
2,9,11,18, 0,24, 0.00,60.00,Thursday
1945,26.383139218813966
3320,72563947.72384587
2,10,11,19, 0, 1, 0.00,60.00,Friday
1945,24.26009411255888
3320,143032238.43278098
2,10,11,19, 0, 2, 0.00,60.00,Friday
1945,26.204445005951527
3320,58339223.497174956
2,10,11,19, 0, 3, 0.00,60.00,Friday
1945,24.260870408338242
3320,146481352.91567448
2,10,11,19, 0, 4, 0.00,60.00,Friday
1945,26.030905669141003
3320,58339004.11373619
2,10,11,19, 0, 5, 0.00,60.00,Friday
1945,24.132783208100903
3320,140320382.00433835
2,10,11,19, 0, 6, 0.00,60.00,Friday
1945,25.79584906236029
3320,58339004.11373619
2,10,11,19, 0, 7, 0.00,60.00,Friday
1945,24.075198856138876
3320,137469346.12418362
2,10,11,19, 0, 8, 0.00,60.00,Friday
1945,23.99921057874912
3320,151463620.57411805
2,10,11,19, 0, 9, 0.00,60.00,Friday
1945,24.607139548609908
3320,348651851.05737525
2,10,11,19, 0,10, 0.00,60.00,Friday
1945,25.269789423186978
3320,368737526.8651818
2,10,11,19, 0,11, 0.00,60.00,Friday
1945,26.03479113824428
3320,385986640.81707007
2,10,11,19, 0,12, 0.00,60.00,Friday
1945,26.66798662252575
3320,410632584.22086275
2,10,11,19, 0,13, 0.00,60.00,Friday
1945,27.316576083615907
3320,390149522.90382546
2,10,11,19, 0,14, 0.00,60.00,Friday
1945,27.496228020295895
3320,418186190.98512983
2,10,11,19, 0,15, 0.00,60.00,Friday
1945,27.861989012211914
3320,424423317.8434094
2,10,11,19, 0,16, 0.00,60.00,Friday
1945,27.613769780612785
3320,424550047.54389644
2,10,11,19, 0,17, 0.00,60.00,Friday
1945,27.345921220688552
3320,424068196.32682383
2,10,11,19, 0,18, 0.00,60.00,Friday
1945,27.58451088480652
3320,339237304.2700609
2,10,11,19, 0,19, 0.00,60.00,Friday
1945,25.510430238874903
3320,296203947.8854747
2,10,11,19, 0,20, 0.00,60.00,Friday
1945,25.276605178258713
3320,263238060.40204245
2,10,11,19, 0,21, 0.00,60.00,Friday
1945,24.87782411638345
3320,204685470.13334125
2,10,11,19, 0,22, 0.00,60.00,Friday
1945,24.680616686424628
3320,197039183.97517583
2,10,11,19, 0,23, 0.00,60.00,Friday
1945,24.41731783638337
3320,174710314.3783669
2,10,11,19, 0,24, 0.00,60.00,Friday
1945,26.438690758212285
3320,72563947.72384587
2,11,11,20, 0, 1, 0.00,60.00,Saturday
1945,24.22199707449338
3320,132025983.03694052
2,11,11,20, 0, 2, 0.00,60.00,Saturday
1945,26.12749121126094
3320,47088539.76632162
2,11,11,20, 0, 3, 0.00,60.00,Saturday
1945,24.18784709041213
3320,134045084.52204257
2,11,11,20, 0, 4, 0.00,60.00,Saturday
1945,26.00824084236152
3320,47088379.70955595
2,11,11,20, 0, 5, 0.00,60.00,Saturday
1945,24.144585752795816
3320,128359387.74211784
2,11,11,20, 0, 6, 0.00,60.00,Saturday
1945,25.85667351404423
3320,47088379.70955595
2,11,11,20, 0, 7, 0.00,60.00,Saturday
1945,24.156184425031046
3320,135260327.00247025
2,11,11,20, 0, 8, 0.00,60.00,Saturday
1945,24.00006675120652
3320,143703597.90386766
2,11,11,20, 0, 9, 0.00,60.00,Saturday
1945,24.357271786334994
3320,205341996.51966715
2,11,11,20, 0,10, 0.00,60.00,Saturday
1945,24.925537584643788
3320,234027933.02703676
2,11,11,20, 0,11, 0.00,60.00,Saturday
1945,25.599134586198296
3320,247114093.3323833
2,11,11,20, 0,12, 0.00,60.00,Saturday
1945,26.14243139301046
3320,262339559.17762125
2,11,11,20, 0,13, 0.00,60.00,Saturday
1945,26.21339078736702
3320,230668990.67331845
2,11,11,20, 0,14, 0.00,60.00,Saturday
1945,26.25873446833743
3320,229400395.83482236
2,11,11,20, 0,15, 0.00,60.00,Saturday
1945,26.477461673867147
3320,249682305.4157731
2,11,11,20, 0,16, 0.00,60.00,Saturday
1945,26.46800745959049
3320,250384785.7330994
2,11,11,20, 0,17, 0.00,60.00,Saturday
1945,26.390634675497484
3320,252047966.01805407
2,11,11,20, 0,18, 0.00,60.00,Saturday
1945,26.2985105427963
3320,262027013.6996581
2,11,11,20, 0,19, 0.00,60.00,Saturday
1945,25.216572262298453
3320,273945900.3585007
2,11,11,20, 0,20, 0.00,60.00,Saturday
1945,27.253251157645543
3320,50491404.8872167
2,11,11,20, 0,21, 0.00,60.00,Saturday
1945,24.340397655890335
3320,172003677.10275173
2,11,11,20, 0,22, 0.00,60.00,Saturday
1945,26.635460160683586
3320,49851883.70955593
2,11,11,20, 0,23, 0.00,60.00,Saturday
1945,24.21831575305671
3320,162155136.97956887
2,11,11,20, 0,24, 0.00,60.00,Saturday
1945,26.323359721820218
3320,49851883.70955593
2,12,11,21, 0, 1, 0.00,60.00,Sunday
1945,24.230029633465772
3320,141676936.9314713
2,12,11,21, 0, 2, 0.00,60.00,Sunday
1945,26.045928975641143
3320,47088379.70955593
2,12,11,21, 0, 3, 0.00,60.00,Sunday
1945,24.244598029762123
3320,139978735.06113192
2,12,11,21, 0, 4, 0.00,60.00,Sunday
1945,25.82700272416963
3320,47088379.70955595
2,12,11,21, 0, 5, 0.00,60.00,Sunday
1945,24.079797103574638
3320,124660670.09970477
2,12,11,21, 0, 6, 0.00,60.00,Sunday
1945,25.629949288745703
3320,47088379.70955595
2,12,11,21, 0, 7, 0.00,60.00,Sunday
1945,24.095546364774087
3320,132187098.33344017
2,12,11,21, 0, 8, 0.00,60.00,Sunday
1945,26.08206578508642
3320,45738022.89766528
2,12,11,21, 0, 9, 0.00,60.00,Sunday
1945,24.59677534292495
3320,171719532.09247828
2,12,11,21, 0,10, 0.00,60.00,Sunday
1945,27.520447734912693
3320,45638118.19243601
2,12,11,21, 0,11, 0.00,60.00,Sunday
1945,25.74216790762206
3320,206461609.11405188
2,12,11,21, 0,12, 0.00,60.00,Sunday
1945,28.842914904507882
3320,45638118.19243602
2,12,11,21, 0,13, 0.00,60.00,Sunday
1945,26.59038871006043
3320,230354963.96492994
2,12,11,21, 0,14, 0.00,60.00,Sunday
1945,29.442063636827104
3320,45638118.192436
2,12,11,21, 0,15, 0.00,60.00,Sunday
1945,26.7149470742694
3320,244549001.3628747
2,12,11,21, 0,16, 0.00,60.00,Sunday
1945,29.556855060862475
3320,45638118.19243602
2,12,11,21, 0,17, 0.00,60.00,Sunday
1945,26.373885700888334
3320,254572420.7519133
2,12,11,21, 0,18, 0.00,60.00,Sunday
1945,28.82958632520743
3320,45706568.08924997
2,12,11,21, 0,19, 0.00,60.00,Sunday
1945,25.016458392803944
3320,225237115.740992
2,12,11,21, 0,20, 0.00,60.00,Sunday
1945,27.389299601521437
3320,49852043.76632161
2,12,11,21, 0,21, 0.00,60.00,Sunday
1945,24.374230143360396
3320,161904058.39595002
2,12,11,21, 0,22, 0.00,60.00,Sunday
1945,26.76531903653585
3320,49851883.709555924
2,12,11,21, 0,23, 0.00,60.00,Sunday
1945,24.351916891702277
3320,147924377.93233982
2,12,11,21, 0,24, 0.00,60.00,Sunday
1945,26.552429806990578
3320,49851883.70955593
2,13,11,22, 0, 1, 0.00,60.00,Monday
1945,24.201447783166707
3320,147535538.50233462
2,13,11,22, 0, 2, 0.00,60.00,Monday
1945,26.32870407999242
3320,58339004.113736175
2,13,11,22, 0, 3, 0.00,60.00,Monday
1945,24.217916477342033
3320,144740167.8956784
2,13,11,22, 0, 4, 0.00,60.00,Monday
1945,26.196513286948434
3320,58339004.113736175
2,13,11,22, 0, 5, 0.00,60.00,Monday
1945,24.196276349514804
3320,146540715.7667334
2,13,11,22, 0, 6, 0.00,60.00,Monday
1945,26.00818920727587
3320,58339004.11373619
2,13,11,22, 0, 7, 0.00,60.00,Monday
1945,24.119630076146542
3320,143561004.2568901
2,13,11,22, 0, 8, 0.00,60.00,Monday
1945,23.99882402744072
3320,166979003.8356663
2,13,11,22, 0, 9, 0.00,60.00,Monday
1945,24.69404393090259
3320,355115836.07537216
2,13,11,22, 0,10, 0.00,60.00,Monday
1945,25.366682222053484
3320,385861936.7226349
2,13,11,22, 0,11, 0.00,60.00,Monday
1945,25.861568000933715
3320,401662627.90277255
2,13,11,22, 0,12, 0.00,60.00,Monday
1945,26.112782288794847
3320,409894430.9506085
2,13,11,22, 0,13, 0.00,60.00,Monday
1945,27.187282253398884
3320,394218917.9673743
2,13,11,22, 0,14, 0.00,60.00,Monday
1945,26.865876336101355
3320,424514618.5074532
2,13,11,22, 0,15, 0.00,60.00,Monday
1945,27.15134782053225
3320,421279605.21149987
2,13,11,22, 0,16, 0.00,60.00,Monday
1945,27.353976695178783
3320,424879407.21272975
2,13,11,22, 0,17, 0.00,60.00,Monday
1945,27.27215930558415
3320,425217870.1377067
2,13,11,22, 0,18, 0.00,60.00,Monday
1945,27.396506364293373
3320,339718436.0042554
2,13,11,22, 0,19, 0.00,60.00,Monday
1945,25.538123883142273
3320,315304203.99614507
2,13,11,22, 0,20, 0.00,60.00,Monday
1945,25.108376610018663
3320,277741763.1057233
2,13,11,22, 0,21, 0.00,60.00,Monday
1945,24.752939786368188
3320,242168596.10029662
2,13,11,22, 0,22, 0.00,60.00,Monday
1945,24.581532854002624
3320,219265860.61069456
2,13,11,22, 0,23, 0.00,60.00,Monday
1945,24.35619735634789
3320,189276196.28924838
2,13,11,22, 0,24, 0.00,60.00,Monday
1945,26.388300276057983
3320,72563947.72384587
2,14,11,23, 0, 1, 0.00,60.00,Tuesday
1945,24.266990347024965
3320,148708351.3626578
2,14,11,23, 0, 2, 0.00,60.00,Tuesday
1945,26.069851658712746
3320,58339223.49717496
2,14,11,23, 0, 3, 0.00,60.00,Tuesday
1945,24.135991983080935
3320,146826245.59545222
2,14,11,23, 0, 4, 0.00,60.00,Tuesday
1945,25.944755263231954
3320,58339004.11373619
2,14,11,23, 0, 5, 0.00,60.00,Tuesday
1945,24.118020715870237
3320,143875138.37429786
2,14,11,23, 0, 6, 0.00,60.00,Tuesday
1945,25.810967767000754
3320,58339004.11373619
2,14,11,23, 0, 7, 0.00,60.00,Tuesday
1945,24.08767458782957
3320,143734081.95676434
2,14,11,23, 0, 8, 0.00,60.00,Tuesday
1945,23.998726293108113
3320,159211734.51867035
2,14,11,23, 0, 9, 0.00,60.00,Tuesday
1945,24.357253963550203
3320,345539652.1398433
2,14,11,23, 0,10, 0.00,60.00,Tuesday
1945,24.880650283011175
3320,384241127.8956962
2,14,11,23, 0,11, 0.00,60.00,Tuesday
1945,25.178903717090186
3320,388371309.6197125
2,14,11,23, 0,12, 0.00,60.00,Tuesday
1945,25.67448040599114
3320,406479936.5039316
2,14,11,23, 0,13, 0.00,60.00,Tuesday
1945,26.878513011425632
3320,375569790.5888835
2,14,11,23, 0,14, 0.00,60.00,Tuesday
1945,26.562610440246207
3320,421384441.40895224
2,14,11,23, 0,15, 0.00,60.00,Tuesday
1945,26.56017436282964
3320,421158900.79502857
2,14,11,23, 0,16, 0.00,60.00,Tuesday
1945,26.469662138451206
3320,421505381.1971985
2,14,11,23, 0,17, 0.00,60.00,Tuesday
1945,26.397576075147125
3320,423626321.6028163
2,14,11,23, 0,18, 0.00,60.00,Tuesday
1945,27.012353370403275
3320,338855546.7255029
2,14,11,23, 0,19, 0.00,60.00,Tuesday
1945,24.574260172426396
3320,277400335.59147614
2,14,11,23, 0,20, 0.00,60.00,Tuesday
1945,24.48423315257424
3320,238402176.54584098
2,14,11,23, 0,21, 0.00,60.00,Tuesday
1945,24.216705455290338
3320,202019742.4753195
2,14,11,23, 0,22, 0.00,60.00,Tuesday
1945,24.02952740448167
3320,189930411.21626896
2,14,11,23, 0,23, 0.00,60.00,Tuesday
1945,24.384688177968993
3320,165067679.36882737
2,14,11,23, 0,24, 0.00,60.00,Tuesday
1945,25.973612408724637
3320,72563947.72384587
2,15,11,24, 0, 1, 0.00,60.00,Wednesday
1945,24.17242178915195
3320,146830666.80637783
2,15,11,24, 0, 2, 0.00,60.00,Wednesday
1945,25.748393010093032
3320,58339223.49717496
2,15,11,24, 0, 3, 0.00,60.00,Wednesday
1945,24.10180528811293
3320,147558862.98267034
2,15,11,24, 0, 4, 0.00,60.00,Wednesday
1945,25.601455354889794
3320,58339004.11373618
2,15,11,24, 0, 5, 0.00,60.00,Wednesday
1945,24.044991008025775
3320,133330992.0114634
2,15,11,24, 0, 6, 0.00,60.00,Wednesday
1945,25.433060284988862
3320,58339004.11373618
2,15,11,24, 0, 7, 0.00,60.00,Wednesday
1945,24.02666726154542
3320,132053371.75700465
2,15,11,24, 0, 8, 0.00,60.00,Wednesday
1945,23.99862661709614
3320,163807695.81336364
2,15,11,24, 0, 9, 0.00,60.00,Wednesday
1945,24.66196898191646
3320,360341405.92888045
2,15,11,24, 0,10, 0.00,60.00,Wednesday
1945,25.37637362101274
3320,375030362.7296273
2,15,11,24, 0,11, 0.00,60.00,Wednesday
1945,26.121499714012316
3320,402986013.86754763
2,15,11,24, 0,12, 0.00,60.00,Wednesday
1945,26.84534446565804
3320,420116133.1522032