Program Version,EnergyPlus, Version 23.1.0-87ed9199d4, YMD=2026.02.18 00:19
1,5,Environment Title[],Latitude[deg],Longitude[deg],Time Zone[],Elevation[m]
2,8,Day of Simulation[],Month[],Day of Month[],DST Indicator[1=yes 0=no],Hour[],StartMinute[],EndMinute[],DayType
3,5,Cumulative Day of Simulation[],Month[],Day of Month[],DST Indicator[1=yes 0=no],DayType  ! When Daily Meters Requested
4,2,Cumulative Days of Simulation[],Month[]  ! When Monthly Meters Requested
5,1,Cumulative Days of Simulation[] ! When Run Period Meters Requested
6,1,Calendar Year of Simulation[] ! When Annual Meters Requested
135,1,Electricity:Facility [J] !Hourly
3420,1,ElectricityNet:Facility [J] !Hourly
End of Data Dictionary
1,RUNPERIOD 1,  -2.16, -79.88,  -5.00,   5.80
2,1,11, 4, 1, 1, 0.00,60.00,Thursday
135,122659451.09203972
3420,122659451.09203972
2,1,11, 4, 1, 2, 0.00,60.00,Thursday
135,117533034.68279687
3420,117533034.68279688
2,1,11, 4, 1, 3, 0.00,60.00,Thursday
135,106339249.04823026
3420,106339249.04823025
2,1,11, 4, 1, 4, 0.00,60.00,Thursday
135,136125227.73580995
3420,136125227.73580992
2,1,11, 4, 1, 5, 0.00,60.00,Thursday
135,125919865.94563586
3420,125919865.94563584
2,1,11, 4, 1, 6, 0.00,60.00,Thursday
135,144945320.61452037
3420,144945320.6145204
2,1,11, 4, 1, 7, 0.00,60.00,Thursday
135,144887961.16736796
3420,144887961.167368
2,1,11, 4, 1, 8, 0.00,60.00,Thursday
135,302295162.3573776
3420,302295162.3573775
2,1,11, 4, 1, 9, 0.00,60.00,Thursday
135,331650903.94079745
3420,331650903.94079745
2,1,11, 4, 1,10, 0.00,60.00,Thursday
135,365470655.1290849
3420,365470655.1290849
2,1,11, 4, 1,11, 0.00,60.00,Thursday
135,379595113.7528744
3420,379595113.7528744
2,1,11, 4, 1,12, 0.00,60.00,Thursday
135,349664634.006961
3420,349664634.006961
2,1,11, 4, 1,13, 0.00,60.00,Thursday
135,393005493.8574376
3420,393005493.8574376
2,1,11, 4, 1,14, 0.00,60.00,Thursday
135,407577154.6447165
3420,407577154.64471656
2,1,11, 4, 1,15, 0.00,60.00,Thursday
135,399176186.1844332
3420,399176186.18443334
2,1,11, 4, 1,16, 0.00,60.00,Thursday
135,409766907.4979544
3420,409766907.4979545
2,1,11, 4, 1,17, 0.00,60.00,Thursday
135,283063887.0118417
3420,283063887.0118417
2,1,11, 4, 1,18, 0.00,60.00,Thursday
135,225027132.9404062
3420,225027132.9404062
2,1,11, 4, 1,19, 0.00,60.00,Thursday
135,212953723.51771936
3420,212953723.5177194
2,1,11, 4, 1,20, 0.00,60.00,Thursday
135,184143197.81059015
3420,184143197.81059015
2,1,11, 4, 1,21, 0.00,60.00,Thursday
135,173345780.61757758
3420,173345780.6175776
2,1,11, 4, 1,22, 0.00,60.00,Thursday
135,144240788.50069457
3420,144240788.50069457
2,1,11, 4, 1,23, 0.00,60.00,Thursday
135,131630977.96909848
3420,131630977.96909848
2,1,11, 4, 1,24, 0.00,60.00,Thursday
135,103586916.95301646
3420,103586916.95301646
2,2,11, 5, 1, 1, 0.00,60.00,Friday
135,127338922.52847815
3420,127338922.52847813
2,2,11, 5, 1, 2, 0.00,60.00,Friday
135,118382206.92773573
3420,118382206.92773572
2,2,11, 5, 1, 3, 0.00,60.00,Friday
135,99713310.00337598
3420,99713310.00337595
2,2,11, 5, 1, 4, 0.00,60.00,Friday
135,132159825.628068
3420,132159825.628068
2,2,11, 5, 1, 5, 0.00,60.00,Friday
135,124470334.24873671
3420,124470334.24873668
2,2,11, 5, 1, 6, 0.00,60.00,Friday
135,142419039.76886064
3420,142419039.76886064
2,2,11, 5, 1, 7, 0.00,60.00,Friday
135,145703800.79104683
3420,145703800.79104686
2,2,11, 5, 1, 8, 0.00,60.00,Friday
135,311100548.1140706
3420,311100548.1140706
2,2,11, 5, 1, 9, 0.00,60.00,Friday
135,342852687.5015469
3420,342852687.501547
2,2,11, 5, 1,10, 0.00,60.00,Friday
135,372963913.9432751
3420,372963913.9432751
2,2,11, 5, 1,11, 0.00,60.00,Friday
135,393761813.56018764
3420,393761813.5601877
2,2,11, 5, 1,12, 0.00,60.00,Friday
135,376155671.5152394
3420,376155671.5152395
2,2,11, 5, 1,13, 0.00,60.00,Friday
135,415661278.95487225
3420,415661278.95487225
2,2,11, 5, 1,14, 0.00,60.00,Friday
135,419284818.75196064
3420,419284818.75196064
2,2,11, 5, 1,15, 0.00,60.00,Friday
135,421900584.8329787
3420,421900584.83297867
2,2,11, 5, 1,16, 0.00,60.00,Friday
135,423866162.5957936
3420,423866162.59579366
2,2,11, 5, 1,17, 0.00,60.00,Friday
135,317576705.6072641
3420,317576705.6072641
2,2,11, 5, 1,18, 0.00,60.00,Friday
135,296851511.95636296
3420,296851511.95636296
2,2,11, 5, 1,19, 0.00,60.00,Friday
135,286514369.5089009
3420,286514369.5089009
2,2,11, 5, 1,20, 0.00,60.00,Friday
135,232146566.5454486
3420,232146566.5454486
2,2,11, 5, 1,21, 0.00,60.00,Friday
135,206063509.99204838
3420,206063509.99204844
2,2,11, 5, 1,22, 0.00,60.00,Friday
135,165001879.17261332
3420,165001879.17261332
2,2,11, 5, 1,23, 0.00,60.00,Friday
135,154797794.22323334
3420,154797794.2232333
2,2,11, 5, 1,24, 0.00,60.00,Friday
135,97171922.13576241
3420,97171922.13576242
2,3,11, 6, 1, 1, 0.00,60.00,Saturday
135,114329760.00578894
3420,114329760.00578892
2,3,11, 6, 1, 2, 0.00,60.00,Saturday
135,104456192.59450671
3420,104456192.59450671
2,3,11, 6, 1, 3, 0.00,60.00,Saturday
135,89909656.28153844
3420,89909656.28153843
2,3,11, 6, 1, 4, 0.00,60.00,Saturday
135,115489928.83269662
3420,115489928.8326966
2,3,11, 6, 1, 5, 0.00,60.00,Saturday
135,107748186.38744366
3420,107748186.38744366
2,3,11, 6, 1, 6, 0.00,60.00,Saturday
135,145905607.18315768
3420,145905607.1831577
2,3,11, 6, 1, 7, 0.00,60.00,Saturday
135,125354578.73464066
3420,125354578.73464066
2,3,11, 6, 1, 8, 0.00,60.00,Saturday
135,185280152.3447756
3420,185280152.34477562
2,3,11, 6, 1, 9, 0.00,60.00,Saturday
135,209591759.8140561
3420,209591759.81405613
2,3,11, 6, 1,10, 0.00,60.00,Saturday
135,233214721.77006972
3420,233214721.77006975
2,3,11, 6, 1,11, 0.00,60.00,Saturday
135,250539631.1628167
3420,250539631.1628167
2,3,11, 6, 1,12, 0.00,60.00,Saturday
135,224882185.26656866
3420,224882185.26656866
2,3,11, 6, 1,13, 0.00,60.00,Saturday
135,234487776.75677156
3420,234487776.7567716
2,3,11, 6, 1,14, 0.00,60.00,Saturday
135,228699344.90471718
3420,228699344.90471718
2,3,11, 6, 1,15, 0.00,60.00,Saturday
135,236815197.96755454
3420,236815197.96755457
2,3,11, 6, 1,16, 0.00,60.00,Saturday
135,240306769.0050014
3420,240306769.00500143
2,3,11, 6, 1,17, 0.00,60.00,Saturday
135,225315519.95163703
3420,225315519.95163703
2,3,11, 6, 1,18, 0.00,60.00,Saturday
135,176325771.9656691
3420,176325771.9656691
2,3,11, 6, 1,19, 0.00,60.00,Saturday
135,168195304.92038152
3420,168195304.92038152
2,3,11, 6, 1,20, 0.00,60.00,Saturday
135,118150928.06739496
3420,118150928.06739496
2,3,11, 6, 1,21, 0.00,60.00,Saturday
135,136414365.1769125
3420,136414365.1769125
2,3,11, 6, 1,22, 0.00,60.00,Saturday
135,119775202.06986895
3420,119775202.06986895
2,3,11, 6, 1,23, 0.00,60.00,Saturday
135,96754994.2439533
3420,96754994.2439533
2,3,11, 6, 1,24, 0.00,60.00,Saturday
135,115472469.84522022
3420,115472469.84522021
2,4,11, 7, 1, 1, 0.00,60.00,Sunday
135,105821071.92699292
3420,105821071.92699292
2,4,11, 7, 1, 2, 0.00,60.00,Sunday
135,87292886.3776719
3420,87292886.3776719
2,4,11, 7, 1, 3, 0.00,60.00,Sunday
135,110192583.44888005
3420,110192583.44888003
2,4,11, 7, 1, 4, 0.00,60.00,Sunday
135,106712940.41877392
3420,106712940.4187739
2,4,11, 7, 1, 5, 0.00,60.00,Sunday
135,87925904.75033212
3420,87925904.75033212
2,4,11, 7, 1, 6, 0.00,60.00,Sunday
135,132061862.89904487
3420,132061862.89904487
2,4,11, 7, 1, 7, 0.00,60.00,Sunday
135,105711519.31435199
3420,105711519.31435198
2,4,11, 7, 1, 8, 0.00,60.00,Sunday
135,91157673.83268453
3420,91157673.83268453
2,4,11, 7, 1, 9, 0.00,60.00,Sunday
135,131925273.35729057
3420,131925273.3572906
2,4,11, 7, 1,10, 0.00,60.00,Sunday
135,140730583.27942133
3420,140730583.27942133
2,4,11, 7, 1,11, 0.00,60.00,Sunday
135,116593957.83892402
3420,116593957.83892402
2,4,11, 7, 1,12, 0.00,60.00,Sunday
135,163434369.14544797
3420,163434369.145448
2,4,11, 7, 1,13, 0.00,60.00,Sunday
135,170678411.0090341
3420,170678411.0090341
2,4,11, 7, 1,14, 0.00,60.00,Sunday
135,132700695.61259174
3420,132700695.61259174
2,4,11, 7, 1,15, 0.00,60.00,Sunday
135,181885647.27576226
3420,181885647.27576226
2,4,11, 7, 1,16, 0.00,60.00,Sunday
135,186363323.29314932
3420,186363323.29314932
2,4,11, 7, 1,17, 0.00,60.00,Sunday
135,150533575.10409656
3420,150533575.1040966
2,4,11, 7, 1,18, 0.00,60.00,Sunday
135,190576648.74104804
3420,190576648.74104804
2,4,11, 7, 1,19, 0.00,60.00,Sunday
135,183980991.7324136
3420,183980991.7324136
2,4,11, 7, 1,20, 0.00,60.00,Sunday
135,126692245.05326024
3420,126692245.05326025
2,4,11, 7, 1,21, 0.00,60.00,Sunday
135,141531348.17177996
3420,141531348.17177996
2,4,11, 7, 1,22, 0.00,60.00,Sunday
135,123714575.40445861
3420,123714575.40445861
2,4,11, 7, 1,23, 0.00,60.00,Sunday
135,96274106.80807681
3420,96274106.80807681
2,4,11, 7, 1,24, 0.00,60.00,Sunday
135,135668011.3280796
3420,135668011.3280796
2,5,11, 8, 0, 1, 0.00,60.00,Monday
135,114353429.91428743
3420,114353429.91428743
2,5,11, 8, 0, 2, 0.00,60.00,Monday
135,99125924.23485026
3420,99125924.23485024
2,5,11, 8, 0, 3, 0.00,60.00,Monday
135,127247206.5684444
3420,127247206.5684444
2,5,11, 8, 0, 4, 0.00,60.00,Monday
135,115778163.16521153
3420,115778163.16521151
2,5,11, 8, 0, 5, 0.00,60.00,Monday
135,97555578.09848592
3420,97555578.09848595
2,5,11, 8, 0, 6, 0.00,60.00,Monday
135,122006124.0000793
3420,122006124.00007927
2,5,11, 8, 0, 7, 0.00,60.00,Monday
135,130267227.757301
3420,130267227.757301
2,5,11, 8, 0, 8, 0.00,60.00,Monday
135,169336683.39025947
3420,169336683.3902595
2,5,11, 8, 0, 9, 0.00,60.00,Monday
135,341612984.6966581
3420,341612984.69665813
2,5,11, 8, 0,10, 0.00,60.00,Monday
135,372530353.6721322
3420,372530353.6721322
2,5,11, 8, 0,11, 0.00,60.00,Monday
135,388822086.80396426
3420,388822086.80396426
2,5,11, 8, 0,12, 0.00,60.00,Monday
135,407562908.559695
3420,407562908.5596951
2,5,11, 8, 0,13, 0.00,60.00,Monday
135,391861714.0353382
3420,391861714.0353382
2,5,11, 8, 0,14, 0.00,60.00,Monday
135,416191365.6725534
3420,416191365.67255354
2,5,11, 8, 0,15, 0.00,60.00,Monday
135,422466838.1330683
3420,422466838.1330683
2,5,11, 8, 0,16, 0.00,60.00,Monday
135,424289437.5559526
3420,424289437.5559526
2,5,11, 8, 0,17, 0.00,60.00,Monday
135,424655837.5599033
3420,424655837.5599034
2,5,11, 8, 0,18, 0.00,60.00,Monday
135,342169879.3190454
3420,342169879.3190454
2,5,11, 8, 0,19, 0.00,60.00,Monday
135,318352713.90277433
3420,318352713.90277433
2,5,11, 8, 0,20, 0.00,60.00,Monday
135,264111060.7879543
3420,264111060.7879543
2,5,11, 8, 0,21, 0.00,60.00,Monday
135,220837689.35332614
3420,220837689.35332614
2,5,11, 8, 0,22, 0.00,60.00,Monday
135,198111155.59276766
3420,198111155.59276766
2,5,11, 8, 0,23, 0.00,60.00,Monday
135,151013556.89415595
3420,151013556.89415592
2,5,11, 8, 0,24, 0.00,60.00,Monday
135,139741961.33771363
3420,139741961.33771363
2,6,11, 9, 0, 1, 0.00,60.00,Tuesday
135,100813984.36005738
3420,100813984.3600574
2,6,11, 9, 0, 2, 0.00,60.00,Tuesday
135,126447278.66179363
3420,126447278.66179365
2,6,11, 9, 0, 3, 0.00,60.00,Tuesday
135,116503106.75636671
3420,116503106.75636671
2,6,11, 9, 0, 4, 0.00,60.00,Tuesday
135,98751083.96776828
3420,98751083.9677683
2,6,11, 9, 0, 5, 0.00,60.00,Tuesday
135,124045277.88994826
3420,124045277.88994828
2,6,11, 9, 0, 6, 0.00,60.00,Tuesday
135,109518968.60127686
3420,109518968.60127686
2,6,11, 9, 0, 7, 0.00,60.00,Tuesday
135,130757154.00551023
3420,130757154.00551024
2,6,11, 9, 0, 8, 0.00,60.00,Tuesday
135,164490617.06160003
3420,164490617.06160003
2,6,11, 9, 0, 9, 0.00,60.00,Tuesday
135,340015401.3251117
3420,340015401.3251117
2,6,11, 9, 0,10, 0.00,60.00,Tuesday
135,377606274.72848135
3420,377606274.7284814
2,6,11, 9, 0,11, 0.00,60.00,Tuesday
135,395213989.6675442
3420,395213989.6675442
2,6,11, 9, 0,12, 0.00,60.00,Tuesday
135,401820842.0239446
3420,401820842.0239446
2,6,11, 9, 0,13, 0.00,60.00,Tuesday
135,385580797.9123108
3420,385580797.9123108
2,6,11, 9, 0,14, 0.00,60.00,Tuesday
135,410166021.371003
3420,410166021.37100303
2,6,11, 9, 0,15, 0.00,60.00,Tuesday
135,420232495.69393164
3420,420232495.69393164
2,6,11, 9, 0,16, 0.00,60.00,Tuesday
135,426202642.4075268
3420,426202642.40752685
2,6,11, 9, 0,17, 0.00,60.00,Tuesday
135,426109089.2144344
3420,426109089.2144344
2,6,11, 9, 0,18, 0.00,60.00,Tuesday
135,341655436.3437385
3420,341655436.3437385
2,6,11, 9, 0,19, 0.00,60.00,Tuesday
135,316546932.2707906
3420,316546932.2707906
2,6,11, 9, 0,20, 0.00,60.00,Tuesday
135,266840527.22969803
3420,266840527.22969797
2,6,11, 9, 0,21, 0.00,60.00,Tuesday
135,226632046.39974013
3420,226632046.39974016
2,6,11, 9, 0,22, 0.00,60.00,Tuesday
135,203759507.6976757
3420,203759507.69767576
2,6,11, 9, 0,23, 0.00,60.00,Tuesday
135,157534697.45149818
3420,157534697.45149818
2,6,11, 9, 0,24, 0.00,60.00,Tuesday
135,148334733.6640084
3420,148334733.6640084
2,7,11,10, 0, 1, 0.00,60.00,Wednesday
135,105698799.41809037
3420,105698799.41809039
2,7,11,10, 0, 2, 0.00,60.00,Wednesday
135,137741632.81298673
3420,137741632.81298673
2,7,11,10, 0, 3, 0.00,60.00,Wednesday
135,122313364.82755366
3420,122313364.82755366
2,7,11,10, 0, 4, 0.00,60.00,Wednesday
135,100764628.57823685
3420,100764628.57823683
2,7,11,10, 0, 5, 0.00,60.00,Wednesday
135,123378439.94611323
3420,123378439.94611323
2,7,11,10, 0, 6, 0.00,60.00,Wednesday
135,115345261.61581174
3420,115345261.6158117
2,7,11,10, 0, 7, 0.00,60.00,Wednesday
135,139100459.54332882
3420,139100459.54332882
2,7,11,10, 0, 8, 0.00,60.00,Wednesday
135,176571695.44172966
3420,176571695.44172966
2,7,11,10, 0, 9, 0.00,60.00,Wednesday
135,349758883.8875902
3420,349758883.8875902
2,7,11,10, 0,10, 0.00,60.00,Wednesday
135,391182201.5438005
3420,391182201.5438005
2,7,11,10, 0,11, 0.00,60.00,Wednesday
135,403642887.3621922
3420,403642887.3621922
2,7,11,10, 0,12, 0.00,60.00,Wednesday
135,412327912.8440592
3420,412327912.8440592
2,7,11,10, 0,13, 0.00,60.00,Wednesday
135,399265271.5909058
3420,399265271.5909058
2,7,11,10, 0,14, 0.00,60.00,Wednesday
135,422284093.7831339
3420,422284093.7831339
2,7,11,10, 0,15, 0.00,60.00,Wednesday
135,426304328.79221356
3420,426304328.79221356
2,7,11,10, 0,16, 0.00,60.00,Wednesday
135,429842813.31194246
3420,429842813.31194246
2,7,11,10, 0,17, 0.00,60.00,Wednesday
135,429903253.17393374
3420,429903253.1739338
2,7,11,10, 0,18, 0.00,60.00,Wednesday
135,345544707.5971432
3420,345544707.5971432
2,7,11,10, 0,19, 0.00,60.00,Wednesday
135,331402354.44116867
3420,331402354.44116867
2,7,11,10, 0,20, 0.00,60.00,Wednesday
135,294904853.3544407
3420,294904853.3544407
2,7,11,10, 0,21, 0.00,60.00,Wednesday
135,249266772.70025745
3420,249266772.70025748
2,7,11,10, 0,22, 0.00,60.00,Wednesday
135,219562239.6758644
3420,219562239.6758644
2,7,11,10, 0,23, 0.00,60.00,Wednesday
135,164640588.52182704
3420,164640588.52182704
2,7,11,10, 0,24, 0.00,60.00,Wednesday
135,155632091.97868416
3420,155632091.97868416
2,8,11,11, 0, 1, 0.00,60.00,Holiday
135,96863577.18850921
3420,96863577.18850921
2,8,11,11, 0, 2, 0.00,60.00,Holiday
135,131778783.42893343
3420,131778783.42893343
2,8,11,11, 0, 3, 0.00,60.00,Holiday
135,117396483.74243817
3420,117396483.7424382
2,8,11,11, 0, 4, 0.00,60.00,Holiday
135,94769895.49563071
3420,94769895.49563071
2,8,11,11, 0, 5, 0.00,60.00,Holiday
135,119385017.96752633
3420,119385017.96752633
2,8,11,11, 0, 6, 0.00,60.00,Holiday
135,107940398.6514497
3420,107940398.65144971
2,8,11,11, 0, 7, 0.00,60.00,Holiday
135,90308081.46955046
3420,90308081.46955046
2,8,11,11, 0, 8, 0.00,60.00,Holiday
135,121089333.79825124
3420,121089333.79825124
2,8,11,11, 0, 9, 0.00,60.00,Holiday
135,128215843.26750344
3420,128215843.26750344
2,8,11,11, 0,10, 0.00,60.00,Holiday
135,106423669.82696119
3420,106423669.82696119
2,8,11,11, 0,11, 0.00,60.00,Holiday
135,156084575.89624536
3420,156084575.8962454
2,8,11,11, 0,12, 0.00,60.00,Holiday
135,170834656.3090349
3420,170834656.3090349
2,8,11,11, 0,13, 0.00,60.00,Holiday
135,132673168.93666849
3420,132673168.93666852
2,8,11,11, 0,14, 0.00,60.00,Holiday
135,184337681.87345755
3420,184337681.87345755
2,8,11,11, 0,15, 0.00,60.00,Holiday
135,191733548.47481638
3420,191733548.4748164
2,8,11,11, 0,16, 0.00,60.00,Holiday
135,149075372.35031974
3420,149075372.35031977
2,8,11,11, 0,17, 0.00,60.00,Holiday
135,198432220.49506822
3420,198432220.49506822
2,8,11,11, 0,18, 0.00,60.00,Holiday
135,207595572.42564136
3420,207595572.42564136
2,8,11,11, 0,19, 0.00,60.00,Holiday
135,154242275.2413945
3420,154242275.2413945
2,8,11,11, 0,20, 0.00,60.00,Holiday
135,173024085.62535343
3420,173024085.62535343
2,8,11,11, 0,21, 0.00,60.00,Holiday
135,149624504.5547247
3420,149624504.5547247
2,8,11,11, 0,22, 0.00,60.00,Holiday
135,102613866.03706448
3420,102613866.03706448
2,8,11,11, 0,23, 0.00,60.00,Holiday
135,125039114.20219919
3420,125039114.20219919
2,8,11,11, 0,24, 0.00,60.00,Holiday
135,118814926.16641447
3420,118814926.16641447
2,9,11,12, 0, 1, 0.00,60.00,Friday
135,106178048.83586308
3420,106178048.83586313
2,9,11,12, 0, 2, 0.00,60.00,Friday
135,131618742.6268917
3420,131618742.6268917
2,9,11,12, 0, 3, 0.00,60.00,Friday
135,118146810.09100337
3420,118146810.09100337
2,9,11,12, 0, 4, 0.00,60.00,Friday
135,99989062.29482615
3420,99989062.29482614
2,9,11,12, 0, 5, 0.00,60.00,Friday
135,123382933.8406844
3420,123382933.8406844
2,9,11,12, 0, 6, 0.00,60.00,Friday
135,116120329.42419979
3420,116120329.42419979
2,9,11,12, 0, 7, 0.00,60.00,Friday
135,134138427.27324177
3420,134138427.27324176
2,9,11,12, 0, 8, 0.00,60.00,Friday
135,172912672.50718197
3420,172912672.507182
2,9,11,12, 0, 9, 0.00,60.00,Friday
135,352782225.6495759
3420,352782225.6495759
2,9,11,12, 0,10, 0.00,60.00,Friday
135,386901754.94219905
3420,386901754.94219905
2,9,11,12, 0,11, 0.00,60.00,Friday
135,401912069.2449897
3420,401912069.24498975
2,9,11,12, 0,12, 0.00,60.00,Friday
135,409316115.6061955
3420,409316115.6061955
2,9,11,12, 0,13, 0.00,60.00,Friday
135,397370495.0472098
3420,397370495.0472098
2,9,11,12, 0,14, 0.00,60.00,Friday
135,424183019.9821726
3420,424183019.9821726
2,9,11,12, 0,15, 0.00,60.00,Friday
135,428456463.1940893
3420,428456463.1940893
2,9,11,12, 0,16, 0.00,60.00,Friday
135,430823033.71745646
3420,430823033.71745646
2,9,11,12, 0,17, 0.00,60.00,Friday
135,431305183.76725
3420,431305183.76725
2,9,11,12, 0,18, 0.00,60.00,Friday
135,345661180.85414433
3420,345661180.85414433
2,9,11,12, 0,19, 0.00,60.00,Friday
135,315626108.5001448
3420,315626108.50014484
2,9,11,12, 0,20, 0.00,60.00,Friday
135,276235601.2691375
3420,276235601.2691375
2,9,11,12, 0,21, 0.00,60.00,Friday
135,229426873.03509557
3420,229426873.03509563
2,9,11,12, 0,22, 0.00,60.00,Friday
135,208459736.87304527
3420,208459736.87304527
2,9,11,12, 0,23, 0.00,60.00,Friday
135,159401304.49163938
3420,159401304.4916394
2,9,11,12, 0,24, 0.00,60.00,Friday
135,147665956.17027688
3420,147665956.17027688
2,10,11,13, 0, 1, 0.00,60.00,Saturday
135,91189331.29415125
3420,91189331.29415126
2,10,11,13, 0, 2, 0.00,60.00,Saturday
135,123659035.89582327
3420,123659035.89582327
2,10,11,13, 0, 3, 0.00,60.00,Saturday
135,113306956.07642923
3420,113306956.07642925
2,10,11,13, 0, 4, 0.00,60.00,Saturday
135,92523964.14966889
3420,92523964.14966889
2,10,11,13, 0, 5, 0.00,60.00,Saturday
135,116622588.67510171
3420,116622588.6751017
2,10,11,13, 0, 6, 0.00,60.00,Saturday
135,105787628.29620269
3420,105787628.2962027
2,10,11,13, 0, 7, 0.00,60.00,Saturday
135,141352177.2174915
3420,141352177.2174915
2,10,11,13, 0, 8, 0.00,60.00,Saturday
135,163150965.05383438
3420,163150965.05383438
2,10,11,13, 0, 9, 0.00,60.00,Saturday
135,216634758.53102168
3420,216634758.5310217
2,10,11,13, 0,10, 0.00,60.00,Saturday
135,234050336.39959607
3420,234050336.3995961
2,10,11,13, 0,11, 0.00,60.00,Saturday
135,246664728.26030096
3420,246664728.26030093
2,10,11,13, 0,12, 0.00,60.00,Saturday
135,269777331.9125113
3420,269777331.9125113
2,10,11,13, 0,13, 0.00,60.00,Saturday
135,243884659.3602699
3420,243884659.3602699
2,10,11,13, 0,14, 0.00,60.00,Saturday
135,246732759.2061444
3420,246732759.2061444
2,10,11,13, 0,15, 0.00,60.00,Saturday
135,256758068.00972608
3420,256758068.00972605
2,10,11,13, 0,16, 0.00,60.00,Saturday
135,261400094.785912
3420,261400094.78591198
2,10,11,13, 0,17, 0.00,60.00,Saturday
135,267334711.95760223
3420,267334711.95760223
2,10,11,13, 0,18, 0.00,60.00,Saturday
135,255243990.00149167
3420,255243990.00149167
2,10,11,13, 0,19, 0.00,60.00,Saturday
135,209774286.15136695
3420,209774286.15136698
2,10,11,13, 0,20, 0.00,60.00,Saturday
135,164773910.67831907
3420,164773910.67831904
2,10,11,13, 0,21, 0.00,60.00,Saturday
135,110913934.61634733
3420,110913934.61634733
2,10,11,13, 0,22, 0.00,60.00,Saturday
135,131455745.55200347
3420,131455745.55200347
2,10,11,13, 0,23, 0.00,60.00,Saturday
135,121227699.17045744
3420,121227699.17045744
2,10,11,13, 0,24, 0.00,60.00,Saturday
135,97284771.03281872
3420,97284771.03281872
2,11,11,14, 0, 1, 0.00,60.00,Sunday
135,117675377.32458627
3420,117675377.32458627
2,11,11,14, 0, 2, 0.00,60.00,Sunday
135,102172681.43686478
3420,102172681.43686476
2,11,11,14, 0, 3, 0.00,60.00,Sunday
135,88012907.39430669
3420,88012907.39430667
2,11,11,14, 0, 4, 0.00,60.00,Sunday
135,115158704.03698249
3420,115158704.0369825
2,11,11,14, 0, 5, 0.00,60.00,Sunday
135,106278357.3894302
3420,106278357.3894302
2,11,11,14, 0, 6, 0.00,60.00,Sunday
135,93244101.82420951
3420,93244101.82420953
2,11,11,14, 0, 7, 0.00,60.00,Sunday
135,113241969.52190727
3420,113241969.52190726
2,11,11,14, 0, 8, 0.00,60.00,Sunday
135,107918701.18021049
3420,107918701.18021047
2,11,11,14, 0, 9, 0.00,60.00,Sunday
135,88772957.49436909
3420,88772957.49436907
2,11,11,14, 0,10, 0.00,60.00,Sunday
135,111874362.84327804
3420,111874362.84327807
2,11,11,14, 0,11, 0.00,60.00,Sunday
135,105475011.20044254
3420,105475011.20044254
2,11,11,14, 0,12, 0.00,60.00,Sunday
135,107093640.5965334
3420,107093640.5965334
2,11,11,14, 0,13, 0.00,60.00,Sunday
135,146501907.88089442
3420,146501907.88089445
2,11,11,14, 0,14, 0.00,60.00,Sunday
135,146758524.82125738
3420,146758524.8212574
2,11,11,14, 0,15, 0.00,60.00,Sunday
135,121098425.32780254
3420,121098425.32780254
2,11,11,14, 0,16, 0.00,60.00,Sunday
135,159562136.43353462
3420,159562136.43353465
2,11,11,14, 0,17, 0.00,60.00,Sunday
135,171583162.87511095
3420,171583162.87511095
2,11,11,14, 0,18, 0.00,60.00,Sunday
135,135378860.08186802
3420,135378860.08186802
2,11,11,14, 0,19, 0.00,60.00,Sunday
135,172391130.58925155
3420,172391130.58925155
2,11,11,14, 0,20, 0.00,60.00,Sunday
135,132802585.57655294
3420,132802585.57655296
2,11,11,14, 0,21, 0.00,60.00,Sunday
135,101413154.4368203
3420,101413154.4368203
2,11,11,14, 0,22, 0.00,60.00,Sunday
135,124105926.80816624
3420,124105926.80816624
2,11,11,14, 0,23, 0.00,60.00,Sunday
135,107642335.18548603
3420,107642335.18548602
2,11,11,14, 0,24, 0.00,60.00,Sunday
135,92550184.6904992
3420,92550184.6904992
2,12,11,15, 0, 1, 0.00,60.00,Monday
135,120690747.6047088
3420,120690747.60470879
2,12,11,15, 0, 2, 0.00,60.00,Monday
135,116643888.9230268
3420,116643888.9230268
2,12,11,15, 0, 3, 0.00,60.00,Monday
135,99587258.10284016
3420,99587258.10284016
2,12,11,15, 0, 4, 0.00,60.00,Monday
135,121080250.20376816
3420,121080250.20376816
2,12,11,15, 0, 5, 0.00,60.00,Monday
135,119254347.21642448
3420,119254347.21642447
2,12,11,15, 0, 6, 0.00,60.00,Monday
135,107287860.7638689
3420,107287860.7638689
2,12,11,15, 0, 7, 0.00,60.00,Monday
135,141006147.01682273
3420,141006147.01682276
2,12,11,15, 0, 8, 0.00,60.00,Monday
135,158533143.3651635
3420,158533143.3651635
2,12,11,15, 0, 9, 0.00,60.00,Monday
135,333085300.41895807
3420,333085300.41895807
2,12,11,15, 0,10, 0.00,60.00,Monday
135,369787265.63815045
3420,369787265.6381505
2,12,11,15, 0,11, 0.00,60.00,Monday
135,390231378.53232485
3420,390231378.53232485
2,12,11,15, 0,12, 0.00,60.00,Monday
135,405821840.68711144
3420,405821840.6871115
2,12,11,15, 0,13, 0.00,60.00,Monday
135,384146373.01829904
3420,384146373.01829904
2,12,11,15, 0,14, 0.00,60.00,Monday
135,422712105.2828269
3420,422712105.2828269
2,12,11,15, 0,15, 0.00,60.00,Monday
135,428228376.22922003
3420,428228376.22922003
2,12,11,15, 0,16, 0.00,60.00,Monday
135,431056331.39647233
3420,431056331.39647233
2,12,11,15, 0,17, 0.00,60.00,Monday
135,432538916.6235329
3420,432538916.6235329
2,12,11,15, 0,18, 0.00,60.00,Monday
135,347646804.16738594
3420,347646804.16738594
2,12,11,15, 0,19, 0.00,60.00,Monday
135,321945268.92482877
3420,321945268.92482877
2,12,11,15, 0,20, 0.00,60.00,Monday
135,273644326.1783544
3420,273644326.1783544
2,12,11,15, 0,21, 0.00,60.00,Monday
135,231637843.01037183
3420,231637843.01037183
2,12,11,15, 0,22, 0.00,60.00,Monday
135,206741620.45880586
3420,206741620.45880586
2,12,11,15, 0,23, 0.00,60.00,Monday
135,156728291.13062936
3420,156728291.1306294
2,12,11,15, 0,24, 0.00,60.00,Monday
135,147346867.28810024
3420,147346867.28810024
2,13,11,16, 0, 1, 0.00,60.00,Tuesday
135,109923071.65811521
3420,109923071.65811522
2,13,11,16, 0, 2, 0.00,60.00,Tuesday
135,127265851.28207669
3420,127265851.28207669
2,13,11,16, 0, 3, 0.00,60.00,Tuesday
135,114044739.98287632
3420,114044739.98287632
2,13,11,16, 0, 4, 0.00,60.00,Tuesday
135,99139483.92035508
3420,99139483.92035511
2,13,11,16, 0, 5, 0.00,60.00,Tuesday
135,129373538.79094979
3420,129373538.79094979
2,13,11,16, 0, 6, 0.00,60.00,Tuesday
135,119976523.48475008
3420,119976523.48475009
2,13,11,16, 0, 7, 0.00,60.00,Tuesday
135,133484419.40520468
3420,133484419.40520471
2,13,11,16, 0, 8, 0.00,60.00,Tuesday
135,166752586.03863737
3420,166752586.0386374
2,13,11,16, 0, 9, 0.00,60.00,Tuesday
135,349208791.2661642
3420,349208791.2661642
2,13,11,16, 0,10, 0.00,60.00,Tuesday
135,364972179.63779145
3420,364972179.63779145
2,13,11,16, 0,11, 0.00,60.00,Tuesday
135,383286083.22122526
3420,383286083.22122526
2,13,11,16, 0,12, 0.00,60.00,Tuesday
135,390483965.7051837
3420,390483965.70518374
2,13,11,16, 0,13, 0.00,60.00,Tuesday
135,368838243.3624873
3420,368838243.3624873
2,13,11,16, 0,14, 0.00,60.00,Tuesday
135,406739388.9552127
3420,406739388.9552128
2,13,11,16, 0,15, 0.00,60.00,Tuesday
135,412086244.6323619
3420,412086244.6323618
2,13,11,16, 0,16, 0.00,60.00,Tuesday
135,412608751.14602184
3420,412608751.14602184
2,13,11,16, 0,17, 0.00,60.00,Tuesday
135,407646671.99385786
3420,407646671.99385786
2,13,11,16, 0,18, 0.00,60.00,Tuesday
135,272060872.9887427
3420,272060872.98874277
2,13,11,16, 0,19, 0.00,60.00,Tuesday
135,229203226.31211042
3420,229203226.31211042
2,13,11,16, 0,20, 0.00,60.00,Tuesday
135,205373448.43508124
3420,205373448.43508124
2,13,11,16, 0,21, 0.00,60.00,Tuesday
135,181184235.22920257
3420,181184235.22920263
2,13,11,16, 0,22, 0.00,60.00,Tuesday
135,172330728.5426144
3420,172330728.54261443
2,13,11,16, 0,23, 0.00,60.00,Tuesday
135,145963948.4793946
3420,145963948.4793946
2,13,11,16, 0,24, 0.00,60.00,Tuesday
135,141135763.35841316
3420,141135763.35841316
2,14,11,17, 0, 1, 0.00,60.00,Wednesday
135,105461680.31604221
3420,105461680.31604221
2,14,11,17, 0, 2, 0.00,60.00,Wednesday
135,125206053.47809945
3420,125206053.47809945
2,14,11,17, 0, 3, 0.00,60.00,Wednesday
135,114544236.13314986
3420,114544236.13314988
2,14,11,17, 0, 4, 0.00,60.00,Wednesday
135,98533294.4981753
3420,98533294.4981753
2,14,11,17, 0, 5, 0.00,60.00,Wednesday
135,122832977.64606437
3420,122832977.64606434
2,14,11,17, 0, 6, 0.00,60.00,Wednesday
135,121708022.49292938
3420,121708022.49292937
2,14,11,17, 0, 7, 0.00,60.00,Wednesday
135,120150780.5417576
3420,120150780.54175761
2,14,11,17, 0, 8, 0.00,60.00,Wednesday
135,152050652.535612
3420,152050652.535612
2,14,11,17, 0, 9, 0.00,60.00,Wednesday
135,331972097.4222825
3420,331972097.4222825
2,14,11,17, 0,10, 0.00,60.00,Wednesday
135,386509293.82515836
3420,386509293.82515836
2,14,11,17, 0,11, 0.00,60.00,Wednesday
135,406652133.29253274
3420,406652133.2925328
2,14,11,17, 0,12, 0.00,60.00,Wednesday
135,411255100.1303447
3420,411255100.1303447
2,14,11,17, 0,13, 0.00,60.00,Wednesday
135,393026203.0795973
3420,393026203.07959735
2,14,11,17, 0,14, 0.00,60.00,Wednesday
135,425684835.45033455
3420,425684835.45033455
2,14,11,17, 0,15, 0.00,60.00,Wednesday
135,428393201.1146277
3420,428393201.1146277
2,14,11,17, 0,16, 0.00,60.00,Wednesday
135,426232366.4894679
3420,426232366.4894679
2,14,11,17, 0,17, 0.00,60.00,Wednesday
135,430933319.0037453
3420,430933319.0037453
2,14,11,17, 0,18, 0.00,60.00,Wednesday
135,345156139.57766294
3420,345156139.57766294
2,14,11,17, 0,19, 0.00,60.00,Wednesday
135,300176465.7217271
3420,300176465.72172713
2,14,11,17, 0,20, 0.00,60.00,Wednesday
135,239629445.19512835
3420,239629445.19512835
2,14,11,17, 0,21, 0.00,60.00,Wednesday
135,202078361.33731404
3420,202078361.33731404
2,14,11,17, 0,22, 0.00,60.00,Wednesday
135,184214595.01756164
3420,184214595.01756167
2,14,11,17, 0,23, 0.00,60.00,Wednesday
135,152864840.02861118
3420,152864840.0286112
2,14,11,17, 0,24, 0.00,60.00,Wednesday
135,131393187.95212032
3420,131393187.9521203
2,15,11,18, 0, 1, 0.00,60.00,Thursday
135,98274600.14652291
3420,98274600.14652288
2,15,11,18, 0, 2, 0.00,60.00,Thursday
135,128850866.09746969
3420,128850866.09746969
2,15,11,18, 0, 3, 0.00,60.00,Thursday
135,112600681.5907582
3420,112600681.5907582
2,15,11,18, 0, 4, 0.00,60.00,Thursday
135,97902924.10524851
3420,97902924.10524851
2,15,11,18, 0, 5, 0.00,60.00,Thursday
135,127682286.76515983
3420,127682286.76515982
2,15,11,18, 0, 6, 0.00,60.00,Thursday
135,120325204.02486645
3420,120325204.02486643
2,15,11,18, 0, 7, 0.00,60.00,Thursday
135,120928517.73202562
3420,120928517.73202561
2,15,11,18, 0, 8, 0.00,60.00,Thursday
135,150973740.0209835
3420,150973740.0209835
2,15,11,18, 0, 9, 0.00,60.00,Thursday
135,336699880.7557279
3420,336699880.7557279
2,15,11,18, 0,10, 0.00,60.00,Thursday
135,369652133.995987
3420,369652133.995987
2,15,11,18, 0,11, 0.00,60.00,Thursday
135,393355787.37947476
3420,393355787.37947476
2,15,11,18, 0,12, 0.00,60.00,Thursday
135,415790704.23842835
3420,415790704.2384285
2,15,11,18, 0,13, 0.00,60.00,Thursday
135,391456430.457682
3420,391456430.4576821
2,15,11,18, 0,14, 0.00,60.00,Thursday
135,426238614.8767031
3420,426238614.8767031
2,15,11,18, 0,15, 0.00,60.00,Thursday
135,429874035.9264465
3420,429874035.92644644
2,15,11,18, 0,16, 0.00,60.00,Thursday
135,433547159.1678426
3420,433547159.1678426
2,15,11,18, 0,17, 0.00,60.00,Thursday
135,435969616.6429135
3420,435969616.6429136
2,15,11,18, 0,18, 0.00,60.00,Thursday
135,355298873.54867345
3420,355298873.54867345