Program Version,EnergyPlus, Version 23.1.0-87ed9199d4, YMD=2026.02.01 14:48
1,5,Environment Title[],Latitude[deg],Longitude[deg],Time Zone[],Elevation[m]
2,8,Day of Simulation[],Month[],Day of Month[],DST Indicator[1=yes 0=no],Hour[],StartMinute[],EndMinute[],DayType
3,5,Cumulative Day of Simulation[],Month[],Day of Month[],DST Indicator[1=yes 0=no],DayType  ! When Daily Report Variables Requested
4,2,Cumulative Days of Simulation[],Month[]  ! When Monthly Report Variables Requested
5,1,Cumulative Days of Simulation[] ! When Run Period Report Variables Requested
6,1,Calendar Year of Simulation[] ! When Annual Report Variables Requested
1945,1,PERIMETER_BOT_ZN_1,Zone Mean Air Temperature [C] !TimeStep
3320,1,Whole Building,Facility Total Purchased Electricity Energy [J] !TimeStep
End of Data Dictionary
1,RUNPERIOD 1,  -2.16, -79.88,  -5.00,   5.80
2,1,11, 5, 1, 1, 0.00,60.00,Friday
1945,24.438280900344505
3320,138542219.07031143
2,1,11, 5, 1, 2, 0.00,60.00,Friday
1945,25.7432819127444
3320,58339004.11373619
2,1,11, 5, 1, 3, 0.00,60.00,Friday
1945,24.091311312805917
3320,141661063.1180418
2,1,11, 5, 1, 4, 0.00,60.00,Friday
1945,25.624467348382613
3320,58339004.11373619
2,1,11, 5, 1, 5, 0.00,60.00,Friday
1945,24.085328621070012
3320,144647450.5733816
2,1,11, 5, 1, 6, 0.00,60.00,Friday
1945,23.999933508192296
3320,141903378.07323864
2,1,11, 5, 1, 7, 0.00,60.00,Friday
1945,23.999326780240843
3320,156443660.26589417
2,1,11, 5, 1, 8, 0.00,60.00,Friday
1945,23.99541227764536
3320,320486531.1843907
2,1,11, 5, 1, 9, 0.00,60.00,Friday
1945,24.50328615153971
3320,348909755.77209437
2,1,11, 5, 1,10, 0.00,60.00,Friday
1945,25.25486272343833
3320,375480292.8945317
2,1,11, 5, 1,11, 0.00,60.00,Friday
1945,25.844805180965565
3320,405939302.3368299
2,1,11, 5, 1,12, 0.00,60.00,Friday
1945,26.535154053630457
3320,368225626.4045466
2,1,11, 5, 1,13, 0.00,60.00,Friday
1945,26.34162704975488
3320,415737906.61063325
2,1,11, 5, 1,14, 0.00,60.00,Friday
1945,26.6006883990358
3320,416763670.9358451
2,1,11, 5, 1,15, 0.00,60.00,Friday
1945,26.751066997902505
3320,420937776.9051463
2,1,11, 5, 1,16, 0.00,60.00,Friday
1945,26.739501154095507
3320,420979496.6409793
2,1,11, 5, 1,17, 0.00,60.00,Friday
1945,27.453120330872405
3320,318608453.5493122
2,1,11, 5, 1,18, 0.00,60.00,Friday
1945,26.15153982837024
3320,300534915.0325557
2,1,11, 5, 1,19, 0.00,60.00,Friday
1945,25.070705928123903
3320,275715514.5454886
2,1,11, 5, 1,20, 0.00,60.00,Friday
1945,24.718089164264057
3320,235942981.17786705
2,1,11, 5, 1,21, 0.00,60.00,Friday
1945,24.400308256462534
3320,208603681.42650124
2,1,11, 5, 1,22, 0.00,60.00,Friday
1945,24.17542454941435
3320,182644149.04139766
2,1,11, 5, 1,23, 0.00,60.00,Friday
1945,26.05756640487848
3320,72563947.72384587
2,1,11, 5, 1,24, 0.00,60.00,Friday
1945,24.125427511400087
3320,134772148.4446906
2,2,11, 6, 1, 1, 0.00,60.00,Saturday
1945,25.810254528616607
3320,47088539.76632162
2,2,11, 6, 1, 2, 0.00,60.00,Saturday
1945,24.092898239702627
3320,130795806.41481544
2,2,11, 6, 1, 3, 0.00,60.00,Saturday
1945,25.674798149891355
3320,47088379.70955595
2,2,11, 6, 1, 4, 0.00,60.00,Saturday
1945,24.095583148580946
3320,136312189.25418532
2,2,11, 6, 1, 5, 0.00,60.00,Saturday
1945,25.559062090914992
3320,47088379.70955594
2,2,11, 6, 1, 6, 0.00,60.00,Saturday
1945,24.038110993443482
3320,154527739.7717796
2,2,11, 6, 1, 7, 0.00,60.00,Saturday
1945,23.999730769766586
3320,124771761.37885357
2,2,11, 6, 1, 8, 0.00,60.00,Saturday
1945,23.99956028162914
3320,197006725.44924688
2,2,11, 6, 1, 9, 0.00,60.00,Saturday
1945,24.54943987462493
3320,217082912.29024738
2,2,11, 6, 1,10, 0.00,60.00,Saturday
1945,25.139459723118733
3320,241128456.88618773
2,2,11, 6, 1,11, 0.00,60.00,Saturday
1945,25.556007106470858
3320,250921608.10676962
2,2,11, 6, 1,12, 0.00,60.00,Saturday
1945,25.999059330165004
3320,230976020.23125857
2,2,11, 6, 1,13, 0.00,60.00,Saturday
1945,26.25191605815946
3320,228781337.06914836
2,2,11, 6, 1,14, 0.00,60.00,Saturday
1945,26.26948916130308
3320,233491632.3450572
2,2,11, 6, 1,15, 0.00,60.00,Saturday
1945,26.32383576633752
3320,239231516.18012384
2,2,11, 6, 1,16, 0.00,60.00,Saturday
1945,26.33672920684598
3320,241573906.06094378
2,2,11, 6, 1,17, 0.00,60.00,Saturday
1945,26.16228366889032
3320,226669712.20653588
2,2,11, 6, 1,18, 0.00,60.00,Saturday
1945,26.051227916408262
3320,229203836.50982174
2,2,11, 6, 1,19, 0.00,60.00,Saturday
1945,27.62521209102142
3320,50491177.22466561
2,2,11, 6, 1,20, 0.00,60.00,Saturday
1945,24.426022261330136
3320,167994690.04356915
2,2,11, 6, 1,21, 0.00,60.00,Saturday
1945,26.63616810404494
3320,49851883.70955593
2,2,11, 6, 1,22, 0.00,60.00,Saturday
1945,24.189924703838763
3320,131096534.31141333
2,2,11, 6, 1,23, 0.00,60.00,Saturday
1945,26.19025783791959
3320,49851883.70955593
2,2,11, 6, 1,24, 0.00,60.00,Saturday
1945,24.13929608062975
3320,131012425.09484793
2,3,11, 7, 1, 1, 0.00,60.00,Sunday
1945,25.906356571587335
3320,47088379.70955595
2,3,11, 7, 1, 2, 0.00,60.00,Sunday
1945,24.146474989049665
3320,120043358.28752807
2,3,11, 7, 1, 3, 0.00,60.00,Sunday
1945,25.73605154270144
3320,47088379.70955595
2,3,11, 7, 1, 4, 0.00,60.00,Sunday
1945,24.09330346704585
3320,122674503.27651125
2,3,11, 7, 1, 5, 0.00,60.00,Sunday
1945,25.642607517361327
3320,47088379.70955595
2,3,11, 7, 1, 6, 0.00,60.00,Sunday
1945,24.081407762885036
3320,149616947.13649905
2,3,11, 7, 1, 7, 0.00,60.00,Sunday
1945,25.546317736445893
3320,46598021.620128244
2,3,11, 7, 1, 8, 0.00,60.00,Sunday
1945,24.139900705802912
3320,137700931.0618413
2,3,11, 7, 1, 9, 0.00,60.00,Sunday
1945,26.70292116949513
3320,45638145.93937318
2,3,11, 7, 1,10, 0.00,60.00,Sunday
1945,24.985371898925635
3320,177441945.01266092
2,3,11, 7, 1,11, 0.00,60.00,Sunday
1945,27.86167001054872
3320,45638118.19243602
2,3,11, 7, 1,12, 0.00,60.00,Sunday
1945,25.62439155318269
3320,208495324.95349675
2,3,11, 7, 1,13, 0.00,60.00,Sunday
1945,28.609591049667017
3320,45638118.19243602
2,3,11, 7, 1,14, 0.00,60.00,Sunday
1945,26.2978423948669
3320,217824872.67872986
2,3,11, 7, 1,15, 0.00,60.00,Sunday
1945,29.10327214143686
3320,45638118.19243602
2,3,11, 7, 1,16, 0.00,60.00,Sunday
1945,26.244627067125563
3320,228067608.9920528
2,3,11, 7, 1,17, 0.00,60.00,Sunday
1945,29.143079965071884
3320,45638118.19243601
2,3,11, 7, 1,18, 0.00,60.00,Sunday
1945,25.91132984426183
3320,223430727.1067539
2,3,11, 7, 1,19, 0.00,60.00,Sunday
1945,27.936584053491327
3320,50112538.88893068
2,3,11, 7, 1,20, 0.00,60.00,Sunday
1945,24.44597255231182
3320,179234516.90247288
2,3,11, 7, 1,21, 0.00,60.00,Sunday
1945,26.84643082981906
3320,49851883.709555924
2,3,11, 7, 1,22, 0.00,60.00,Sunday
1945,24.24210441098396
3320,139060146.00286058
2,3,11, 7, 1,23, 0.00,60.00,Sunday
1945,26.44254950419482
3320,49851883.709555924
2,3,11, 7, 1,24, 0.00,60.00,Sunday
1945,24.274007911472882
3320,151048565.55986363
2,4,11, 8, 0, 1, 0.00,60.00,Monday
1945,26.25825185844926
3320,58339004.113736175
2,4,11, 8, 0, 2, 0.00,60.00,Monday
1945,24.158386890523374
3320,144820822.37235385
2,4,11, 8, 0, 3, 0.00,60.00,Monday
1945,26.024833093482314
3320,58339004.113736175
2,4,11, 8, 0, 4, 0.00,60.00,Monday
1945,24.157472700474454
3320,141090650.15374503
2,4,11, 8, 0, 5, 0.00,60.00,Monday
1945,25.858176282538487
3320,58339004.113736175
2,4,11, 8, 0, 6, 0.00,60.00,Monday
1945,24.13468377201435
3320,143565462.6390124
2,4,11, 8, 0, 7, 0.00,60.00,Monday
1945,23.999819177744623
3320,127559263.99553892
2,4,11, 8, 0, 8, 0.00,60.00,Monday
1945,23.998079558144617
3320,185594871.43118882
2,4,11, 8, 0, 9, 0.00,60.00,Monday
1945,25.111558313962476
3320,362064585.8318868
2,4,11, 8, 0,10, 0.00,60.00,Monday
1945,25.610155039987433
3320,384336539.6069701
2,4,11, 8, 0,11, 0.00,60.00,Monday
1945,26.300439711232748
3320,397923632.29330504
2,4,11, 8, 0,12, 0.00,60.00,Monday
1945,26.87654457787297
3320,411919965.7888725
2,4,11, 8, 0,13, 0.00,60.00,Monday
1945,27.38316720641066
3320,390964087.0992786
2,4,11, 8, 0,14, 0.00,60.00,Monday
1945,27.52293993479883
3320,416568168.26618546
2,4,11, 8, 0,15, 0.00,60.00,Monday
1945,27.924495263196444
3320,421084067.46596974
2,4,11, 8, 0,16, 0.00,60.00,Monday
1945,28.051115749866
3320,421342856.7127276
2,4,11, 8, 0,17, 0.00,60.00,Monday
1945,28.03203960316849
3320,421435944.82397866
2,4,11, 8, 0,18, 0.00,60.00,Monday
1945,28.155170018433445
3320,339025470.9608005
2,4,11, 8, 0,19, 0.00,60.00,Monday
1945,25.908962018228095
3320,309691027.870324
2,4,11, 8, 0,20, 0.00,60.00,Monday
1945,25.648448841982447
3320,268427730.6577272
2,4,11, 8, 0,21, 0.00,60.00,Monday
1945,25.22186277575853
3320,225450885.08821645
2,4,11, 8, 0,22, 0.00,60.00,Monday
1945,24.933256611717862
3320,196639378.36432326
2,4,11, 8, 0,23, 0.00,60.00,Monday
1945,24.721074728541712
3320,177642728.78427392
2,4,11, 8, 0,24, 0.00,60.00,Monday
1945,26.753014911941136
3320,72563947.72384587
2,5,11, 9, 0, 1, 0.00,60.00,Tuesday
1945,24.328953076872743
3320,133528980.34100884
2,5,11, 9, 0, 2, 0.00,60.00,Tuesday
1945,26.455808782148566
3320,58339223.497174956
2,5,11, 9, 0, 3, 0.00,60.00,Tuesday
1945,24.190638011700177
3320,136785428.07234704
2,5,11, 9, 0, 4, 0.00,60.00,Tuesday
1945,26.212032902484957
3320,58339004.113736175
2,5,11, 9, 0, 5, 0.00,60.00,Tuesday
1945,24.20805171740617
3320,142691894.66839632
2,5,11, 9, 0, 6, 0.00,60.00,Tuesday
1945,26.058902889718617
3320,58339004.113736175
2,5,11, 9, 0, 7, 0.00,60.00,Tuesday
1945,24.156638156727794
3320,139191997.0020823
2,5,11, 9, 0, 8, 0.00,60.00,Tuesday
1945,24.02413299304024
3320,181602691.99859145
2,5,11, 9, 0, 9, 0.00,60.00,Tuesday
1945,25.255034865755512
3320,362866602.70665824
2,5,11, 9, 0,10, 0.00,60.00,Tuesday
1945,25.799202417043322
3320,385909890.08283776
2,5,11, 9, 0,11, 0.00,60.00,Tuesday
1945,26.405626095958745
3320,396399801.8537827
2,5,11, 9, 0,12, 0.00,60.00,Tuesday
1945,26.82041193364636
3320,400102348.8107768
2,5,11, 9, 0,13, 0.00,60.00,Tuesday
1945,27.14604428281664
3320,391554985.1344821
2,5,11, 9, 0,14, 0.00,60.00,Tuesday
1945,27.64158469742808
3320,412132956.4656657
2,5,11, 9, 0,15, 0.00,60.00,Tuesday
1945,28.03888303310793
3320,419917648.7686571
2,5,11, 9, 0,16, 0.00,60.00,Tuesday
1945,28.188568000621895
3320,424602615.1564285
2,5,11, 9, 0,17, 0.00,60.00,Tuesday
1945,27.958824494483768
3320,421922164.6815846
2,5,11, 9, 0,18, 0.00,60.00,Tuesday
1945,28.09591467849934
3320,338314701.03450173
2,5,11, 9, 0,19, 0.00,60.00,Tuesday
1945,25.961269390582274
3320,305013640.4411983
2,5,11, 9, 0,20, 0.00,60.00,Tuesday
1945,25.70973007066937
3320,266972112.80180266
2,5,11, 9, 0,21, 0.00,60.00,Tuesday
1945,25.231103454003637
3320,230179378.45209277
2,5,11, 9, 0,22, 0.00,60.00,Tuesday
1945,24.9547563986361
3320,208468314.34362233
2,5,11, 9, 0,23, 0.00,60.00,Tuesday
1945,24.738923789190913
3320,182113517.43157688
2,5,11, 9, 0,24, 0.00,60.00,Tuesday
1945,26.76630488195259
3320,72563947.72384587
2,6,11,10, 0, 1, 0.00,60.00,Wednesday
1945,24.25781413268777
3320,144041473.45162344
2,6,11,10, 0, 2, 0.00,60.00,Wednesday
1945,26.46386780148019
3320,58339223.497174956
2,6,11,10, 0, 3, 0.00,60.00,Wednesday
1945,24.195697718077817
3320,140821532.8702963
2,6,11,10, 0, 4, 0.00,60.00,Wednesday
1945,26.252837681424516
3320,58339004.113736175
2,6,11,10, 0, 5, 0.00,60.00,Wednesday
1945,24.16096696427485
3320,135901812.47459945
2,6,11,10, 0, 6, 0.00,60.00,Wednesday
1945,26.050920461907367
3320,58339004.113736175
2,6,11,10, 0, 7, 0.00,60.00,Wednesday
1945,24.1602454246977
3320,145553182.70649254
2,6,11,10, 0, 8, 0.00,60.00,Wednesday
1945,24.021366268583492
3320,191651514.2578842
2,6,11,10, 0, 9, 0.00,60.00,Wednesday
1945,25.297078602680884
3320,369978902.9803519
2,6,11,10, 0,10, 0.00,60.00,Wednesday
1945,26.06270714023341
3320,397791253.1076376
2,6,11,10, 0,11, 0.00,60.00,Wednesday
1945,26.589412715749624
3320,403305235.67753065
2,6,11,10, 0,12, 0.00,60.00,Wednesday
1945,27.03202972090745
3320,412160380.2541146
2,6,11,10, 0,13, 0.00,60.00,Wednesday
1945,27.559365111790054
3320,401822240.4573889
2,6,11,10, 0,14, 0.00,60.00,Wednesday
1945,27.936453528582003
3320,421005753.48267853
2,6,11,10, 0,15, 0.00,60.00,Wednesday
1945,28.265977149173242
3320,424559116.55757785
2,6,11,10, 0,16, 0.00,60.00,Wednesday
1945,28.421109589778084
3320,427923115.7152454
2,6,11,10, 0,17, 0.00,60.00,Wednesday
1945,28.154050948400815
3320,425826500.43314344
2,6,11,10, 0,18, 0.00,60.00,Wednesday
1945,28.45599518458561
3320,341828278.3546138
2,6,11,10, 0,19, 0.00,60.00,Wednesday
1945,26.195613757560885
3320,320041251.3455141
2,6,11,10, 0,20, 0.00,60.00,Wednesday
1945,25.877127032571245
3320,297446975.0401105
2,6,11,10, 0,21, 0.00,60.00,Wednesday
1945,25.359831744454237
3320,248032101.95223385
2,6,11,10, 0,22, 0.00,60.00,Wednesday
1945,25.126232058257592
3320,220318257.85028017
2,6,11,10, 0,23, 0.00,60.00,Wednesday
1945,24.8536350918312
3320,191598291.22887096
2,6,11,10, 0,24, 0.00,60.00,Wednesday
1945,26.876494201537362
3320,72563947.72384587
2,7,11,11, 0, 1, 0.00,60.00,Holiday
1945,24.272397962280586
3320,137826939.53840822
2,7,11,11, 0, 2, 0.00,60.00,Holiday
1945,26.529702873944913
3320,47088539.766321614
2,7,11,11, 0, 3, 0.00,60.00,Holiday
1945,24.25106260147772
3320,137671501.1970338
2,7,11,11, 0, 4, 0.00,60.00,Holiday
1945,26.303322187245982
3320,47088379.70955593
2,7,11,11, 0, 5, 0.00,60.00,Holiday
1945,24.234012072826367
3320,135338536.20315933
2,7,11,11, 0, 6, 0.00,60.00,Holiday
1945,26.124350990975195
3320,47088379.70955593
2,7,11,11, 0, 7, 0.00,60.00,Holiday
1945,24.209222835445296
3320,133966312.62593006
2,7,11,11, 0, 8, 0.00,60.00,Holiday
1945,26.41390819036532
3320,45743164.94784801
2,7,11,11, 0, 9, 0.00,60.00,Holiday
1945,24.50278207859902
3320,167910121.34860247
2,7,11,11, 0,10, 0.00,60.00,Holiday
1945,27.448615866887824
3320,45638118.192436
2,7,11,11, 0,11, 0.00,60.00,Holiday
1945,25.775514845536946
3320,203711218.96399513
2,7,11,11, 0,12, 0.00,60.00,Holiday
1945,28.759583260526334
3320,45638118.19243602
2,7,11,11, 0,13, 0.00,60.00,Holiday
1945,26.379087589179907
3320,218420355.43940544
2,7,11,11, 0,14, 0.00,60.00,Holiday
1945,29.48460499181772
3320,45638118.19243601
2,7,11,11, 0,15, 0.00,60.00,Holiday
1945,26.96354943596017
3320,235356229.02622968
2,7,11,11, 0,16, 0.00,60.00,Holiday
1945,29.723972822731174
3320,45638118.192436
2,7,11,11, 0,17, 0.00,60.00,Holiday
1945,26.447897675214698
3320,235245183.90503794
2,7,11,11, 0,18, 0.00,60.00,Holiday
1945,29.17696596151329
3320,45686830.32880463
2,7,11,11, 0,19, 0.00,60.00,Holiday
1945,25.42847227189418
3320,218401177.20405713
2,7,11,11, 0,20, 0.00,60.00,Holiday
1945,27.714916143979394
3320,49852043.76632161
2,7,11,11, 0,21, 0.00,60.00,Holiday
1945,24.653659657084347
3320,169485195.85164815
2,7,11,11, 0,22, 0.00,60.00,Holiday
1945,26.982188527315838
3320,49851883.709555924
2,7,11,11, 0,23, 0.00,60.00,Holiday
1945,24.28485322316865
3320,139400631.40749598
2,7,11,11, 0,24, 0.00,60.00,Holiday
1945,26.611415392632644
3320,49851883.709555924
2,8,11,12, 0, 1, 0.00,60.00,Friday
1945,24.269534291650157
3320,147578647.30571437
2,8,11,12, 0, 2, 0.00,60.00,Friday
1945,26.34554635911989
3320,58339004.113736175
2,8,11,12, 0, 3, 0.00,60.00,Friday
1945,24.171698234445522
3320,141603374.2608813
2,8,11,12, 0, 4, 0.00,60.00,Friday
1945,26.091750855285433
3320,58339004.113736175
2,8,11,12, 0, 5, 0.00,60.00,Friday
1945,24.136942464897928
3320,138499224.48298815
2,8,11,12, 0, 6, 0.00,60.00,Friday
1945,25.9826071757895
3320,58339004.113736175
2,8,11,12, 0, 7, 0.00,60.00,Friday
1945,24.194905050683573
3320,144377401.86585778
2,8,11,12, 0, 8, 0.00,60.00,Friday
1945,24.01571055413926
3320,196399063.08977777
2,8,11,12, 0, 9, 0.00,60.00,Friday
1945,25.305261494320348
3320,368320074.7034588
2,8,11,12, 0,10, 0.00,60.00,Friday
1945,26.072736916386447
3320,393596497.3532078
2,8,11,12, 0,11, 0.00,60.00,Friday
1945,26.655786796197887
3320,404229679.7663633
2,8,11,12, 0,12, 0.00,60.00,Friday
1945,27.12489979312287
3320,408029036.1536189
2,8,11,12, 0,13, 0.00,60.00,Friday
1945,27.95576920779434
3320,404719324.8830015
2,8,11,12, 0,14, 0.00,60.00,Friday
1945,28.038869670678626
3320,422622812.28536844
2,8,11,12, 0,15, 0.00,60.00,Friday
1945,28.42433159000951
3320,427188803.9568487
2,8,11,12, 0,16, 0.00,60.00,Friday
1945,28.53933697294363
3320,427890389.37666863
2,8,11,12, 0,17, 0.00,60.00,Friday
1945,28.429299576797295
3320,427952291.8832877
2,8,11,12, 0,18, 0.00,60.00,Friday
1945,28.50001530198252
3320,340819709.70325774
2,8,11,12, 0,19, 0.00,60.00,Friday
1945,26.249340274779744
3320,315999975.73341566
2,8,11,12, 0,20, 0.00,60.00,Friday
1945,25.928010015371488
3320,285629304.4085555
2,8,11,12, 0,21, 0.00,60.00,Friday
1945,25.531186825174313
3320,248613627.6552627
2,8,11,12, 0,22, 0.00,60.00,Friday
1945,25.17931593750611
3320,210049946.6346077
2,8,11,12, 0,23, 0.00,60.00,Friday
1945,24.973827546751714
3320,190246236.15957806
2,8,11,12, 0,24, 0.00,60.00,Friday
1945,26.96266775808136
3320,72563947.72384587
2,9,11,13, 0, 1, 0.00,60.00,Saturday
1945,24.288566320254585
3320,129858772.9166066
2,9,11,13, 0, 2, 0.00,60.00,Saturday
1945,26.556565742993588
3320,47088539.766321614
2,9,11,13, 0, 3, 0.00,60.00,Saturday
1945,24.265460337569646
3320,133344280.68797751
2,9,11,13, 0, 4, 0.00,60.00,Saturday
1945,26.36812044365254
3320,47088379.70955593
2,9,11,13, 0, 5, 0.00,60.00,Saturday
1945,24.26226437058093
3320,131302871.95477794
2,9,11,13, 0, 6, 0.00,60.00,Saturday
1945,26.159944011711186
3320,47088379.70955593
2,9,11,13, 0, 7, 0.00,60.00,Saturday
1945,24.303490687017735
3320,147044608.9921841
2,9,11,13, 0, 8, 0.00,60.00,Saturday
1945,24.77159328409363
3320,178754077.29041764
2,9,11,13, 0, 9, 0.00,60.00,Saturday
1945,25.333330872650865
3320,223441306.23662472
2,9,11,13, 0,10, 0.00,60.00,Saturday
1945,25.872351391508136
3320,239374457.50804403
2,9,11,13, 0,11, 0.00,60.00,Saturday
1945,26.39989949402333
3320,254514855.19220245
2,9,11,13, 0,12, 0.00,60.00,Saturday
1945,26.941939183825582
3320,270820305.6659309
2,9,11,13, 0,13, 0.00,60.00,Saturday
1945,27.00614564131726
3320,251580676.59707272
2,9,11,13, 0,14, 0.00,60.00,Saturday
1945,27.307044149072233
3320,251571980.36124998
2,9,11,13, 0,15, 0.00,60.00,Saturday
1945,27.49583122944668
3320,255613002.1723054
2,9,11,13, 0,16, 0.00,60.00,Saturday
1945,27.466347495480967
3320,266703840.89593792
2,9,11,13, 0,17, 0.00,60.00,Saturday
1945,27.287818918006707
3320,264966483.43743396
2,9,11,13, 0,18, 0.00,60.00,Saturday
1945,26.991802582985407
3320,263504278.57276618
2,9,11,13, 0,19, 0.00,60.00,Saturday
1945,25.831502789763324
3320,242148098.56420642
2,9,11,13, 0,20, 0.00,60.00,Saturday
1945,27.911396200448944
3320,50491404.8872167
2,9,11,13, 0,21, 0.00,60.00,Saturday
1945,24.76755245412157
3320,150028265.24948645
2,9,11,13, 0,22, 0.00,60.00,Saturday
1945,27.0898724696468
3320,49851883.709555924
2,9,11,13, 0,23, 0.00,60.00,Saturday
1945,24.327955386338505
3320,137088964.5238074
2,9,11,13, 0,24, 0.00,60.00,Saturday
1945,26.721510205921703
3320,49851883.709555924
2,10,11,14, 0, 1, 0.00,60.00,Sunday
1945,24.2945117313077
3320,129802283.98552725
2,10,11,14, 0, 2, 0.00,60.00,Sunday
1945,26.38671225874979
3320,47088379.70955593
2,10,11,14, 0, 3, 0.00,60.00,Sunday
1945,24.236153553316356
3320,129579841.98378651
2,10,11,14, 0, 4, 0.00,60.00,Sunday
1945,26.27533016538517
3320,47088379.70955593
2,10,11,14, 0, 5, 0.00,60.00,Sunday
1945,24.280600434962047
3320,131142125.22586451
2,10,11,14, 0, 6, 0.00,60.00,Sunday
1945,26.119818818838596
3320,47088379.70955593
2,10,11,14, 0, 7, 0.00,60.00,Sunday
1945,24.23251460288687
3320,132381679.83600913
2,10,11,14, 0, 8, 0.00,60.00,Sunday
1945,26.14242941543268
3320,45965367.07935627
2,10,11,14, 0, 9, 0.00,60.00,Sunday
1945,24.30278435106262
3320,142233767.35281363
2,10,11,14, 0,10, 0.00,60.00,Sunday
1945,26.554151922806646
3320,45673521.11981929
2,10,11,14, 0,11, 0.00,60.00,Sunday
1945,24.355949202144885
3320,167292534.7863326
2,10,11,14, 0,12, 0.00,60.00,Sunday
1945,27.03600334700343
3320,45638120.3201933
2,10,11,14, 0,13, 0.00,60.00,Sunday
1945,24.82820673298952
3320,192459887.21006945
2,10,11,14, 0,14, 0.00,60.00,Sunday
1945,27.739679253156254
3320,45638118.19243602
2,10,11,14, 0,15, 0.00,60.00,Sunday
1945,25.471702743493218
3320,212696345.75807694
2,10,11,14, 0,16, 0.00,60.00,Sunday
1945,28.070343730990682
3320,45638118.19243602
2,10,11,14, 0,17, 0.00,60.00,Sunday
1945,25.118301722629365
3320,237660960.07911694
2,10,11,14, 0,18, 0.00,60.00,Sunday
1945,27.844138816343616
3320,45732362.85396048
2,10,11,14, 0,19, 0.00,60.00,Sunday
1945,24.44924779453352
3320,185936553.96863264
2,10,11,14, 0,20, 0.00,60.00,Sunday
1945,26.657523664977116
3320,49852043.766321614
2,10,11,14, 0,21, 0.00,60.00,Sunday
1945,24.249688847379353
3320,142749458.89995784
2,10,11,14, 0,22, 0.00,60.00,Sunday
1945,26.22670555772838
3320,49851883.70955593
2,10,11,14, 0,23, 0.00,60.00,Sunday
1945,24.211295308726548
3320,135371496.76436794
2,10,11,14, 0,24, 0.00,60.00,Sunday
1945,25.938190582271595
3320,49851883.70955593
2,11,11,15, 0, 1, 0.00,60.00,Monday
1945,24.113856391816796
3320,134771170.03917468
2,11,11,15, 0, 2, 0.00,60.00,Monday
1945,25.781703298081496
3320,58339004.113736175
2,11,11,15, 0, 3, 0.00,60.00,Monday
1945,24.141088492522574
3320,137804841.39196318
2,11,11,15, 0, 4, 0.00,60.00,Monday
1945,25.624394730923118
3320,58339004.11373619
2,11,11,15, 0, 5, 0.00,60.00,Monday
1945,24.06121050508069
3320,132554723.3684929
2,11,11,15, 0, 6, 0.00,60.00,Monday
1945,25.49096476090195
3320,58339004.11373619
2,11,11,15, 0, 7, 0.00,60.00,Monday
1945,24.045589097642043
3320,142399599.00963944
2,11,11,15, 0, 8, 0.00,60.00,Monday
1945,23.9987949985479
3320,180048715.5292231
2,11,11,15, 0, 9, 0.00,60.00,Monday
1945,25.105910969046334
3320,361546863.72833735
2,11,11,15, 0,10, 0.00,60.00,Monday
1945,25.915762611995024
3320,385360215.2484478
2,11,11,15, 0,11, 0.00,60.00,Monday
1945,26.52460442219838
3320,398663459.28905356
2,11,11,15, 0,12, 0.00,60.00,Monday
1945,27.197697754274397
3320,413438859.9219492
2,11,11,15, 0,13, 0.00,60.00,Monday
1945,27.9578145602794
3320,394605796.0294232
2,11,11,15, 0,14, 0.00,60.00,Monday
1945,27.874981229028133
3320,421009962.1141192
2,11,11,15, 0,15, 0.00,60.00,Monday
1945,28.144945871408154
3320,427680401.4635017
2,11,11,15, 0,16, 0.00,60.00,Monday
1945,28.102148057984817
3320,428111231.46220887
2,11,11,15, 0,17, 0.00,60.00,Monday
1945,28.191847720885374
3320,429869845.7120756
2,11,11,15, 0,18, 0.00,60.00,Monday
1945,28.302265180193633
3320,342702335.44909036
2,11,11,15, 0,19, 0.00,60.00,Monday
1945,25.688886749083377
3320,310548104.960634
2,11,11,15, 0,20, 0.00,60.00,Monday
1945,25.57343175607648
3320,280072086.12154734
2,11,11,15, 0,21, 0.00,60.00,Monday
1945,25.22563162521642
3320,245782883.24515152
2,11,11,15, 0,22, 0.00,60.00,Monday
1945,24.90460276415237
3320,213763645.79377884
2,11,11,15, 0,23, 0.00,60.00,Monday
1945,24.695162980327638
3320,184584179.77964556
2,11,11,15, 0,24, 0.00,60.00,Monday
1945,26.74348838130221
3320,72563947.72384587
2,12,11,16, 0, 1, 0.00,60.00,Tuesday
1945,24.238325805513117
3320,143544228.21044788
2,12,11,16, 0, 2, 0.00,60.00,Tuesday
1945,26.378234599409414
3320,58339223.497174956
2,12,11,16, 0, 3, 0.00,60.00,Tuesday
1945,24.183145542736217
3320,143495237.04104877
2,12,11,16, 0, 4, 0.00,60.00,Tuesday
1945,26.123268683059287
3320,58339004.113736175
2,12,11,16, 0, 5, 0.00,60.00,Tuesday
1945,24.182322692753218
3320,142439978.61985558
2,12,11,16, 0, 6, 0.00,60.00,Tuesday
1945,26.05060730069081
3320,58339004.11373619
2,12,11,16, 0, 7, 0.00,60.00,Tuesday
1945,24.127094072769147
3320,142941652.71495482
2,12,11,16, 0, 8, 0.00,60.00,Tuesday
1945,24.00374518969206
3320,180410268.23882577
2,12,11,16, 0, 9, 0.00,60.00,Tuesday
1945,24.85394878644299
3320,354997846.5012557
2,12,11,16, 0,10, 0.00,60.00,Tuesday
1945,25.3203776105386
3320,374909501.5857222
2,12,11,16, 0,11, 0.00,60.00,Tuesday
1945,25.816663216106214
3320,391471271.80923635
2,12,11,16, 0,12, 0.00,60.00,Tuesday
1945,25.96287721629701
3320,398099884.381921
2,12,11,16, 0,13, 0.00,60.00,Tuesday
1945,25.683414835930183
3320,376196220.4480027
2,12,11,16, 0,14, 0.00,60.00,Tuesday
1945,26.295740337964997
3320,410519535.1474881
2,12,11,16, 0,15, 0.00,60.00,Tuesday
1945,26.21885297488852
3320,410814603.9644165
2,12,11,16, 0,16, 0.00,60.00,Tuesday
1945,26.066797014071444
3320,412628862.23714453
2,12,11,16, 0,17, 0.00,60.00,Tuesday
1945,25.681310589934334
3320,404449147.4066468
2,12,11,16, 0,18, 0.00,60.00,Tuesday
1945,24.965871924191838
3320,279573300.00521797
2,12,11,16, 0,19, 0.00,60.00,Tuesday
1945,24.551454316202552
3320,235667735.07645735
2,12,11,16, 0,20, 0.00,60.00,Tuesday
1945,24.335179637552834
3320,214482753.1787654
2,12,11,16, 0,21, 0.00,60.00,Tuesday
1945,24.1047950281762
3320,188418699.2217481
2,12,11,16, 0,22, 0.00,60.00,Tuesday
1945,24.01148895808449
3320,179806407.07272437
2,12,11,16, 0,23, 0.00,60.00,Tuesday
1945,24.271505090562147
3320,155493461.8727988
2,12,11,16, 0,24, 0.00,60.00,Tuesday
1945,25.850545183909418
3320,72563947.72384587
2,13,11,17, 0, 1, 0.00,60.00,Wednesday
1945,24.174498249339013
3320,142750402.06203312
2,13,11,17, 0, 2, 0.00,60.00,Wednesday
1945,25.716366639605575
3320,58339223.49717496
2,13,11,17, 0, 3, 0.00,60.00,Wednesday
1945,24.09476175381637
3320,140759468.3284915
2,13,11,17, 0, 4, 0.00,60.00,Wednesday
1945,25.594168738353517
3320,58339004.11373618
2,13,11,17, 0, 5, 0.00,60.00,Wednesday
1945,24.042284549590335
3320,130220651.32482652
2,13,11,17, 0, 6, 0.00,60.00,Wednesday
1945,25.430004898188237
3320,58339004.11373618
2,13,11,17, 0, 7, 0.00,60.00,Wednesday
1945,24.027881198085826
3320,128398946.90759432
2,13,11,17, 0, 8, 0.00,60.00,Wednesday
1945,23.999228082146956
3320,161635981.00828362
2,13,11,17, 0, 9, 0.00,60.00,Wednesday
1945,24.620158027456178
3320,346662526.58376956
2,13,11,17, 0,10, 0.00,60.00,Wednesday
1945,25.397694687928038
3320,396178823.06665546
2,13,11,17, 0,11, 0.00,60.00,Wednesday
1945,26.015319626649323
3320,393195194.4582562
2,13,11,17, 0,12, 0.00,60.00,Wednesday
1945,26.291355615780923
3320,394832862.20449066
2,13,11,17, 0,13, 0.00,60.00,Wednesday
1945,27.587402263317173
3320,395053186.19390845
2,13,11,17, 0,14, 0.00,60.00,Wednesday
1945,26.894258165156888
3320,425700821.1020913
2,13,11,17, 0,15, 0.00,60.00,Wednesday
1945,26.827597807211585
3320,424966986.74086475
2,13,11,17, 0,16, 0.00,60.00,Wednesday
1945,26.603767400511703
3320,421905091.78068745
2,13,11,17, 0,17, 0.00,60.00,Wednesday
1945,26.993878901113384
3320,430890467.7797375
2,13,11,17, 0,18, 0.00,60.00,Wednesday
1945,27.080656394280656
3320,340024047.500133
2,13,11,17, 0,19, 0.00,60.00,Wednesday
1945,24.783243363390394
3320,286034558.24944896
2,13,11,17, 0,20, 0.00,60.00,Wednesday
1945,24.647598030627528
3320,245552270.10291213
2,13,11,17, 0,21, 0.00,60.00,Wednesday
1945,24.40328105498439
3320,207933746.72465092
2,13,11,17, 0,22, 0.00,60.00,Wednesday
1945,24.142682108544598
3320,190132651.08820108
2,13,11,17, 0,23, 0.00,60.00,Wednesday
1945,24.4749436990402
3320,164350008.50383848
2,13,11,17, 0,24, 0.00,60.00,Wednesday
1945,25.970548885631338
3320,72563947.72384587
2,14,11,18, 0, 1, 0.00,60.00,Thursday
1945,24.151670995170964
3320,142504226.80558246
2,14,11,18, 0, 2, 0.00,60.00,Thursday
1945,25.784906311379522
3320,58339223.49717496
2,14,11,18, 0, 3, 0.00,60.00,Thursday
1945,24.10474210732937
3320,143329502.1013417
2,14,11,18, 0, 4, 0.00,60.00,Thursday
1945,25.60317163786175
3320,58339004.11373618
2,14,11,18, 0, 5, 0.00,60.00,Thursday
1945,24.03791697196497
3320,132190622.89178161
2,14,11,18, 0, 6, 0.00,60.00,Thursday
1945,25.45209943479727
3320,58339004.11373618
2,14,11,18, 0, 7, 0.00,60.00,Thursday
1945,24.028606589439896
3320,131762933.94680816
2,14,11,18, 0, 8, 0.00,60.00,Thursday
1945,23.999078751486618
3320,150239312.5146424
2,14,11,18, 0, 9, 0.00,60.00,Thursday
1945,24.56844000939807
3320,352675855.2208272
2,14,11,18, 0,10, 0.00,60.00,Thursday
1945,25.325988336541496
3320,388083662.9806806
2,14,11,18, 0,11, 0.00,60.00,Thursday
1945,26.147458256721894
3320,400582605.80534357
2,14,11,18, 0,12, 0.00,60.00,Thursday
1945,26.74646442310472
3320,415848997.4346378
2,14,11,18, 0,13, 0.00,60.00,Thursday
1945,27.701119447623565
3320,379473021.083927
2,14,11,18, 0,14, 0.00,60.00,Thursday
1945,27.691542881984514
3320,424594802.2614457
2,14,11,18, 0,15, 0.00,60.00,Thursday
1945,27.898574273728507
3320,428028228.2410263
2,14,11,18, 0,16, 0.00,60.00,Thursday
1945,27.914048997079625
3320,431690263.4995494
2,14,11,18, 0,17, 0.00,60.00,Thursday
1945,27.52586026418908
3320,432547125.17001414
2,14,11,18, 0,18, 0.00,60.00,Thursday
1945,28.69336167630236
3320,352098044.83520997
2,14,11,18, 0,19, 0.00,60.00,Thursday
1945,25.511238633863236
3320,330313704.634531
2,14,11,18, 0,20, 0.00,60.00,Thursday
1945,25.267465975567028
3320,277767158.89854264
2,14,11,18, 0,21, 0.00,60.00,Thursday
1945,24.86553313195744
3320,235950886.47098404
2,14,11,18, 0,22, 0.00,60.00,Thursday
1945,24.613343342167916
3320,207019881.5363571
2,14,11,18, 0,23, 0.00,60.00,Thursday
1945,24.337265891165856
3320,176469585.1691043
2,14,11,18, 0,24, 0.00,60.00,Thursday
1945,26.33863307264716
3320,72563947.72384587
2,15,11,19, 0, 1, 0.00,60.00,Friday
1945,24.20829273159825
3320,143789610.10509863
2,15,11,19, 0, 2, 0.00,60.00,Friday
1945,26.12607053881504
3320,58339223.497174956
2,15,11,19, 0, 3, 0.00,60.00,Friday
1945,24.184720591768183
3320,146647589.6435727
2,15,11,19, 0, 4, 0.00,60.00,Friday
1945,25.976857504954328
3320,58339004.11373619
2,15,11,19, 0, 5, 0.00,60.00,Friday
1945,24.17584003275237
3320,140555432.30348027
2,15,11,19, 0, 6, 0.00,60.00,Friday
1945,25.765667642190895
3320,58339004.11373619
2,15,11,19, 0, 7, 0.00,60.00,Friday
1945,24.06926180527713
3320,137146446.159333
2,15,11,19, 0, 8, 0.00,60.00,Friday
1945,23.9992422146074
3320,151142581.33641383
2,15,11,19, 0, 9, 0.00,60.00,Friday
1945,24.564524141877463
3320,343940008.1766756
2,15,11,19, 0,10, 0.00,60.00,Friday
1945,25.174529896333254
3320,354410397.9811687
2,15,11,19, 0,11, 0.00,60.00,Friday
1945,25.941911864597806
3320,390382440.2348776
2,15,11,19, 0,12, 0.00,60.00,Friday
1945,26.572358992070825
3320,410674791.75637156
2,15,11,19, 0,13, 0.00,60.00,Friday
1945,27.240861089530714
3320,381335784.7202841