Program Version,EnergyPlus, Version 23.1.0-87ed9199d4, YMD=2026.02.17 23:53
1,5,Environment Title[],Latitude[deg],Longitude[deg],Time Zone[],Elevation[m]
2,8,Day of Simulation[],Month[],Day of Month[],DST Indicator[1=yes 0=no],Hour[],StartMinute[],EndMinute[],DayType
3,5,Cumulative Day of Simulation[],Month[],Day of Month[],DST Indicator[1=yes 0=no],DayType  ! When Daily Report Variables Requested
4,2,Cumulative Days of Simulation[],Month[]  ! When Monthly Report Variables Requested
5,1,Cumulative Days of Simulation[] ! When Run Period Report Variables Requested
6,1,Calendar Year of Simulation[] ! When Annual Report Variables Requested
1945,1,PERIMETER_BOT_ZN_1,Zone Mean Air Temperature [C] !TimeStep
3320,1,Whole Building,Facility Total Purchased Electricity Energy [J] !TimeStep
End of Data Dictionary
1,RUNPERIOD 1,  -2.16, -79.88,  -5.00,   5.80
2,1,11, 4, 1, 1, 0.00,15.00,Thursday
1945,24.041718510635164
3320,38759010.85694118
2,1,11, 4, 1, 1,15.00,30.00,Thursday
1945,23.999798715916505
3320,30654563.603479687
2,1,11, 4, 1, 1,30.00,45.00,Thursday
1945,24.909334834358187
3320,14584751.028434046
2,1,11, 4, 1, 1,45.00,60.00,Thursday
1945,24.022801826649932
3320,38661125.603184804
2,1,11, 4, 1, 2, 0.00,15.00,Thursday
1945,23.99979175735942
3320,31121358.898554668
2,1,11, 4, 1, 2,15.00,30.00,Thursday
1945,24.867738536512025
3320,14584751.028434046
2,1,11, 4, 1, 2,30.00,45.00,Thursday
1945,24.020312255344432
3320,39458140.03724962
2,1,11, 4, 1, 2,45.00,60.00,Thursday
1945,23.99989118496874
3320,32368784.71855855
2,1,11, 4, 1, 3, 0.00,15.00,Thursday
1945,24.819753404531614
3320,14584751.028434042
2,1,11, 4, 1, 3,15.00,30.00,Thursday
1945,24.16956494742133
3320,45271525.3042026
2,1,11, 4, 1, 3,30.00,45.00,Thursday
1945,23.999855774999496
3320,31898221.68715957
2,1,11, 4, 1, 3,45.00,60.00,Thursday
1945,24.781317084960246
3320,14584751.028434042
2,1,11, 4, 1, 4, 0.00,15.00,Thursday
1945,24.148261438751618
3320,44368967.24101354
2,1,11, 4, 1, 4,15.00,30.00,Thursday
1945,23.999832552760456
3320,32166341.49057931
2,1,11, 4, 1, 4,30.00,45.00,Thursday
1945,24.763246947232393
3320,14584751.028434042
2,1,11, 4, 1, 4,45.00,60.00,Thursday
1945,24.139803363426367
3320,45005167.97578305
2,1,11, 4, 1, 5, 0.00,15.00,Thursday
1945,23.999893707231394
3320,32632329.953883685
2,1,11, 4, 1, 5,15.00,30.00,Thursday
1945,24.753448092418623
3320,14584751.028434042
2,1,11, 4, 1, 5,30.00,45.00,Thursday
1945,24.136707460582073
3320,45562196.105015635
2,1,11, 4, 1, 5,45.00,60.00,Thursday
1945,23.99986324396254
3320,33140588.858302478
2,1,11, 4, 1, 6, 0.00,15.00,Thursday
1945,23.999903695507044
3320,35356793.02918775
2,1,11, 4, 1, 6,15.00,30.00,Thursday
1945,23.99961707463255
3320,36591777.7009613
2,1,11, 4, 1, 6,30.00,45.00,Thursday
1945,23.99926836482658
3320,36522782.965261914
2,1,11, 4, 1, 6,45.00,60.00,Thursday
1945,23.998979523416
3320,36473966.91910943
2,1,11, 4, 1, 7, 0.00,15.00,Thursday
1945,23.999640783937362
3320,36272730.431080975
2,1,11, 4, 1, 7,15.00,30.00,Thursday
1945,23.99946079566693
3320,36340592.676562674
2,1,11, 4, 1, 7,30.00,45.00,Thursday
1945,23.999208736015895
3320,36235734.66708672
2,1,11, 4, 1, 7,45.00,60.00,Thursday
1945,23.99898180949473
3320,36038903.39263762
2,1,11, 4, 1, 8, 0.00,15.00,Thursday
1945,23.995847124545367
3320,74572690.03814448
2,1,11, 4, 1, 8,15.00,30.00,Thursday
1945,23.995685157369078
3320,75854976.28371245
2,1,11, 4, 1, 8,30.00,45.00,Thursday
1945,23.997374355115475
3320,77629531.09452489
2,1,11, 4, 1, 8,45.00,60.00,Thursday
1945,23.996271518048157
3320,74237964.94099574
2,1,11, 4, 1, 9, 0.00,15.00,Thursday
1945,23.99746040631853
3320,78950958.67194115
2,1,11, 4, 1, 9,15.00,30.00,Thursday
1945,24.00932598401909
3320,84291464.01701021
2,1,11, 4, 1, 9,30.00,45.00,Thursday
1945,24.058546972239107
3320,83484955.5438717
2,1,11, 4, 1, 9,45.00,60.00,Thursday
1945,24.197958954214965
3320,84923525.7079744
2,1,11, 4, 1,10, 0.00,15.00,Thursday
1945,24.388371854884642
3320,90583336.93985403
2,1,11, 4, 1,10,15.00,30.00,Thursday
1945,24.471423391623233
3320,90239873.2514191
2,1,11, 4, 1,10,30.00,45.00,Thursday
1945,24.56892933698149
3320,91742512.97471158
2,1,11, 4, 1,10,45.00,60.00,Thursday
1945,24.684998225137445
3320,92904931.9631002
2,1,11, 4, 1,11, 0.00,15.00,Thursday
1945,24.800644721557227
3320,91794289.53173392
2,1,11, 4, 1,11,15.00,30.00,Thursday
1945,24.89572345986908
3320,98244811.84756291
2,1,11, 4, 1,11,30.00,45.00,Thursday
1945,25.011782143887082
3320,90214624.07325336
2,1,11, 4, 1,11,45.00,60.00,Thursday
1945,25.19482437142709
3320,99341388.3003242
2,1,11, 4, 1,12, 0.00,15.00,Thursday
1945,25.34567249655845
3320,85383036.44973007
2,1,11, 4, 1,12,15.00,30.00,Thursday
1945,25.44140129896497
3320,89066840.55569425
2,1,11, 4, 1,12,30.00,45.00,Thursday
1945,25.46831487097941
3320,86613814.70852295
2,1,11, 4, 1,12,45.00,60.00,Thursday
1945,25.525867541775042
3320,88600942.29301375
2,1,11, 4, 1,13, 0.00,15.00,Thursday
1945,25.541685669389203
3320,95774648.37343326
2,1,11, 4, 1,13,15.00,30.00,Thursday
1945,25.6732689435875
3320,96789035.79767929
2,1,11, 4, 1,13,30.00,45.00,Thursday
1945,25.862241139043206
3320,100678837.94963211
2,1,11, 4, 1,13,45.00,60.00,Thursday
1945,25.877013625074287
3320,99762971.73669295
2,1,11, 4, 1,14, 0.00,15.00,Thursday
1945,25.975628322316116
3320,101932582.47724232
2,1,11, 4, 1,14,15.00,30.00,Thursday
1945,25.950981564847773
3320,101844349.57549806
2,1,11, 4, 1,14,30.00,45.00,Thursday
1945,26.000608457267653
3320,101946441.1094172
2,1,11, 4, 1,14,45.00,60.00,Thursday
1945,26.006299447998586
3320,101853781.48255898
2,1,11, 4, 1,15, 0.00,15.00,Thursday
1945,25.95559570554874
3320,102120642.83666332
2,1,11, 4, 1,15,15.00,30.00,Thursday
1945,25.91212154694949
3320,102335606.60252626
2,1,11, 4, 1,15,30.00,45.00,Thursday
1945,25.883691799172645
3320,102446042.66075447
2,1,11, 4, 1,15,45.00,60.00,Thursday
1945,25.786893135998078
3320,92273894.08448927
2,1,11, 4, 1,16, 0.00,15.00,Thursday
1945,25.877909214329815
3320,101391250.97135636
2,1,11, 4, 1,16,15.00,30.00,Thursday
1945,25.847792795899405
3320,102803752.52596603
2,1,11, 4, 1,16,30.00,45.00,Thursday
1945,25.784955323317003
3320,102694648.19271164
2,1,11, 4, 1,16,45.00,60.00,Thursday
1945,25.737709423558925
3320,102877255.80792046
2,1,11, 4, 1,17, 0.00,15.00,Thursday
1945,25.543152745003944
3320,73878762.26333168
2,1,11, 4, 1,17,15.00,30.00,Thursday
1945,25.33554787149528
3320,70195279.07930593
2,1,11, 4, 1,17,30.00,45.00,Thursday
1945,25.19154887517633
3320,69643055.85950342
2,1,11, 4, 1,17,45.00,60.00,Thursday
1945,25.031257279479462
3320,69346789.80970068
2,1,11, 4, 1,18, 0.00,15.00,Thursday
1945,24.876220147497953
3320,56710600.788936004
2,1,11, 4, 1,18,15.00,30.00,Thursday
1945,24.708243857630848
3320,57483846.687775984
2,1,11, 4, 1,18,30.00,45.00,Thursday
1945,24.61237494433123
3320,56055353.999659054
2,1,11, 4, 1,18,45.00,60.00,Thursday
1945,24.61111176687856
3320,54777331.464035146
2,1,11, 4, 1,19, 0.00,15.00,Thursday
1945,24.404480429383245
3320,56043761.21091458
2,1,11, 4, 1,19,15.00,30.00,Thursday
1945,24.251230403883543
3320,53973532.33354126
2,1,11, 4, 1,19,30.00,45.00,Thursday
1945,24.136230320162166
3320,52646507.735435545
2,1,11, 4, 1,19,45.00,60.00,Thursday
1945,24.008254293376925
3320,50289922.237828
2,1,11, 4, 1,20, 0.00,15.00,Thursday
1945,23.99996351277911
3320,47582803.34365342
2,1,11, 4, 1,20,15.00,30.00,Thursday
1945,23.999396727393886
3320,46215883.6474793
2,1,11, 4, 1,20,30.00,45.00,Thursday
1945,23.999533847274016
3320,45583090.56852775
2,1,11, 4, 1,20,45.00,60.00,Thursday
1945,23.999776558721173
3320,44761420.25092969
2,1,11, 4, 1,21, 0.00,15.00,Thursday
1945,24.224442138066443
3320,44132957.08770003
2,1,11, 4, 1,21,15.00,30.00,Thursday
1945,24.013994735526932
3320,43801617.8978062
2,1,11, 4, 1,21,30.00,45.00,Thursday
1945,24.000990452021707
3320,43145431.15156522
2,1,11, 4, 1,21,45.00,60.00,Thursday
1945,24.12733638855751
3320,42265774.48050615
2,1,11, 4, 1,22, 0.00,15.00,Thursday
1945,24.28689684546686
3320,37361669.534288995
2,1,11, 4, 1,22,15.00,30.00,Thursday
1945,24.010515907013946
3320,40071910.96265754
2,1,11, 4, 1,22,30.00,45.00,Thursday
1945,25.133302077766785
3320,19266127.659019887
2,1,11, 4, 1,22,45.00,60.00,Thursday
1945,24.096833407573396
3320,47541080.34472814
2,1,11, 4, 1,23, 0.00,15.00,Thursday
1945,23.99993692823926
3320,34277225.06538974
2,1,11, 4, 1,23,15.00,30.00,Thursday
1945,25.081155542085128
3320,18140492.788835313
2,1,11, 4, 1,23,30.00,45.00,Thursday
1945,24.079434963811323
3320,45100538.901176885
2,1,11, 4, 1,23,45.00,60.00,Thursday
1945,23.99990685657131
3320,34112721.21369654
2,1,11, 4, 1,24, 0.00,15.00,Thursday
1945,25.005018700827684
3320,14744646.154517515
2,1,11, 4, 1,24,15.00,30.00,Thursday
1945,24.234294389716062
3320,44091072.58443255
2,1,11, 4, 1,24,30.00,45.00,Thursday
1945,23.999850731813446
3320,30166447.185632356
2,1,11, 4, 1,24,45.00,60.00,Thursday
1945,24.972794050077226
3320,14584751.028434046
2,2,11, 5, 1, 1, 0.00,15.00,Friday
1945,24.042607411106868
3320,40813668.79255135
2,2,11, 5, 1, 1,15.00,30.00,Friday
1945,23.999845057011967
3320,31558108.203108788
2,2,11, 5, 1, 1,30.00,45.00,Friday
1945,24.928829281049918
3320,14584751.028434046
2,2,11, 5, 1, 1,45.00,60.00,Friday
1945,24.029647131788536
3320,40382394.50438394
2,2,11, 5, 1, 2, 0.00,15.00,Friday
1945,23.999862017382842
3320,31780375.88403147
2,2,11, 5, 1, 2,15.00,30.00,Friday
1945,24.888900741986248
3320,14584751.028434046
2,2,11, 5, 1, 2,30.00,45.00,Friday
1945,24.021489681432794
3320,40005651.70053166
2,2,11, 5, 1, 2,45.00,60.00,Friday
1945,23.999898415811423
3320,32011428.314738546
2,2,11, 5, 1, 3, 0.00,15.00,Friday
1945,24.85524109062246
3320,14584751.028434046
2,2,11, 5, 1, 3,15.00,30.00,Friday
1945,24.01962963643097
3320,38041954.81935248
2,2,11, 5, 1, 3,30.00,45.00,Friday
1945,23.999867563686863
3320,32501853.127155393
2,2,11, 5, 1, 3,45.00,60.00,Friday
1945,24.844025454752995
3320,14584751.028434046
2,2,11, 5, 1, 4, 0.00,15.00,Friday
1945,24.019430280625656
3320,39774884.079473674
2,2,11, 5, 1, 4,15.00,30.00,Friday
1945,23.999895041193007
3320,32730809.836916707
2,2,11, 5, 1, 4,30.00,45.00,Friday
1945,24.77111732291767
3320,14584751.028434042
2,2,11, 5, 1, 4,45.00,60.00,Friday
1945,24.14497900479996
3320,45069380.68324357
2,2,11, 5, 1, 5, 0.00,15.00,Friday
1945,23.999892782900996
3320,32425311.538740143
2,2,11, 5, 1, 5,15.00,30.00,Friday
1945,24.739192077729985
3320,14584751.028434042
2,2,11, 5, 1, 5,30.00,45.00,Friday
1945,24.12769320601192
3320,44753287.8582963
2,2,11, 5, 1, 5,45.00,60.00,Friday
1945,23.999863501061274
3320,32706983.823266212
2,2,11, 5, 1, 6, 0.00,15.00,Friday
1945,23.999853068354295
3320,34800601.0935127
2,2,11, 5, 1, 6,15.00,30.00,Friday
1945,23.999602814745042
3320,35921797.90173521
2,2,11, 5, 1, 6,30.00,45.00,Friday
1945,23.999308015523106
3320,35849401.70628762
2,2,11, 5, 1, 6,45.00,60.00,Friday
1945,23.999062809333942
3320,35847239.067325115
2,2,11, 5, 1, 7, 0.00,15.00,Friday
1945,24.000628718295346
3320,36725723.40983985
2,2,11, 5, 1, 7,15.00,30.00,Friday
1945,24.000507541578703
3320,36632268.83848184
2,2,11, 5, 1, 7,30.00,45.00,Friday
1945,23.99988292215515
3320,36342785.99806616
2,2,11, 5, 1, 7,45.00,60.00,Friday
1945,23.998987526011607
3320,36003022.54465899
2,2,11, 5, 1, 8, 0.00,15.00,Friday
1945,23.995855728498604
3320,72954499.7106384
2,2,11, 5, 1, 8,15.00,30.00,Friday
1945,24.157417290125558
3320,78219400.75618699
2,2,11, 5, 1, 8,30.00,45.00,Friday
1945,24.002625257777435
3320,78341930.94616084
2,2,11, 5, 1, 8,45.00,60.00,Friday
1945,23.997318113185337
3320,81584716.70108438
2,2,11, 5, 1, 9, 0.00,15.00,Friday
1945,23.99941494321055
3320,82451829.44499874
2,2,11, 5, 1, 9,15.00,30.00,Friday
1945,24.032417572847507
3320,83865104.80016641
2,2,11, 5, 1, 9,30.00,45.00,Friday
1945,24.204605773555684
3320,87754609.08295512
2,2,11, 5, 1, 9,45.00,60.00,Friday
1945,24.360022085169334
3320,88781144.17342669
2,2,11, 5, 1,10, 0.00,15.00,Friday
1945,24.544853305344024
3320,90426909.60698938
2,2,11, 5, 1,10,15.00,30.00,Friday
1945,24.72306868175793
3320,93167985.5993215
2,2,11, 5, 1,10,30.00,45.00,Friday
1945,24.91462215598783
3320,96560981.34853254
2,2,11, 5, 1,10,45.00,60.00,Friday
1945,25.08288842723818
3320,92808037.3884317
2,2,11, 5, 1,11, 0.00,15.00,Friday
1945,25.302965624819876
3320,99016730.6229893
2,2,11, 5, 1,11,15.00,30.00,Friday
1945,25.367541746794423
3320,92582803.00114164
2,2,11, 5, 1,11,30.00,45.00,Friday
1945,25.55857382090291
3320,101601486.06018253
2,2,11, 5, 1,11,45.00,60.00,Friday
1945,25.633622745814336
3320,100560793.8758742
2,2,11, 5, 1,12, 0.00,15.00,Friday
1945,26.06512252790804
3320,91207811.10230683
2,2,11, 5, 1,12,15.00,30.00,Friday
1945,26.328259842736458
3320,96045133.95094246
2,2,11, 5, 1,12,30.00,45.00,Friday
1945,26.374380595245828
3320,95797181.53285725
2,2,11, 5, 1,12,45.00,60.00,Friday
1945,26.47349258827141
3320,93105544.92913294
2,2,11, 5, 1,13, 0.00,15.00,Friday
1945,26.201064694751786
3320,104248559.49463917
2,2,11, 5, 1,13,15.00,30.00,Friday
1945,26.12533643421768
3320,101893207.16681153
2,2,11, 5, 1,13,30.00,45.00,Friday
1945,26.218592388036242
3320,104959270.70367888
2,2,11, 5, 1,13,45.00,60.00,Friday
1945,26.261817839306964
3320,104560241.58974269
2,2,11, 5, 1,14, 0.00,15.00,Friday
1945,26.293550569619413
3320,104621577.10777678
2,2,11, 5, 1,14,15.00,30.00,Friday
1945,26.33598995246151
3320,105112365.31250457
2,2,11, 5, 1,14,30.00,45.00,Friday
1945,26.33704853679746
3320,104782857.10212487
2,2,11, 5, 1,14,45.00,60.00,Friday
1945,26.33401549009903
3320,104768019.22955444
2,2,11, 5, 1,15, 0.00,15.00,Friday
1945,26.35919982532838
3320,105150173.72029631
2,2,11, 5, 1,15,15.00,30.00,Friday
1945,26.402812935228912
3320,105408444.69640246
2,2,11, 5, 1,15,30.00,45.00,Friday
1945,26.44530459209719
3320,105676416.54371287
2,2,11, 5, 1,15,45.00,60.00,Friday
1945,26.50728949904343
3320,105665549.87256706
2,2,11, 5, 1,16, 0.00,15.00,Friday
1945,26.509528647746595
3320,105961722.5320598
2,2,11, 5, 1,16,15.00,30.00,Friday
1945,26.499615615157328
3320,105964951.57453981
2,2,11, 5, 1,16,30.00,45.00,Friday
1945,26.488187009216293
3320,105968208.49281622
2,2,11, 5, 1,16,45.00,60.00,Friday
1945,26.469773787851004
3320,105971279.99637781
2,2,11, 5, 1,17, 0.00,15.00,Friday
1945,26.931559513592646
3320,78264147.4451488
2,2,11, 5, 1,17,15.00,30.00,Friday
1945,27.106199130874515
3320,82256854.05921556
2,2,11, 5, 1,17,30.00,45.00,Friday
1945,27.134592624048718
3320,77055660.52545048
2,2,11, 5, 1,17,45.00,60.00,Friday
1945,27.259747139617836
3320,80000043.57744928
2,2,11, 5, 1,18, 0.00,15.00,Friday
1945,26.267028050684942
3320,71692062.1695315
2,2,11, 5, 1,18,15.00,30.00,Friday
1945,26.170696460453666
3320,74100304.57714319
2,2,11, 5, 1,18,30.00,45.00,Friday
1945,26.11503641512294
3320,74608592.56147853
2,2,11, 5, 1,18,45.00,60.00,Friday
1945,26.039775631319714
3320,76450552.64820972
2,2,11, 5, 1,19, 0.00,15.00,Friday
1945,25.41316347236765
3320,77130127.48294878
2,2,11, 5, 1,19,15.00,30.00,Friday
1945,25.147095292844796
3320,74441058.83154874
2,2,11, 5, 1,19,30.00,45.00,Friday
1945,24.941195086225143
3320,70040273.06094909
2,2,11, 5, 1,19,45.00,60.00,Friday
1945,24.7988732291373
3320,64902910.13345424
2,2,11, 5, 1,20, 0.00,15.00,Friday
1945,24.614713073651608
3320,60803413.482356444
2,2,11, 5, 1,20,15.00,30.00,Friday
1945,24.52792174054253
3320,58026664.08056047
2,2,11, 5, 1,20,30.00,45.00,Friday
1945,24.446742078805467
3320,57423877.28966555
2,2,11, 5, 1,20,45.00,60.00,Friday
1945,24.36466117303627
3320,55892611.69286615
2,2,11, 5, 1,21, 0.00,15.00,Friday
1945,24.306808976494647
3320,53092953.907653995
2,2,11, 5, 1,21,15.00,30.00,Friday
1945,24.217231775507777
3320,52740677.29021213
2,2,11, 5, 1,21,30.00,45.00,Friday
1945,24.151363664073585
3320,51085323.79384582
2,2,11, 5, 1,21,45.00,60.00,Friday
1945,24.06979697794141
3320,49144555.00033649
2,2,11, 5, 1,22, 0.00,15.00,Friday
1945,24.435254354459072
3320,44349124.12731543
2,2,11, 5, 1,22,15.00,30.00,Friday
1945,24.08416529495487
3320,45924930.35894103
2,2,11, 5, 1,22,30.00,45.00,Friday
1945,25.475551284790356
3320,19266127.659019887
2,2,11, 5, 1,22,45.00,60.00,Friday
1945,24.50205952050341
3320,55461697.02733697
2,2,11, 5, 1,23, 0.00,15.00,Friday
1945,24.164683156872677
3320,44221048.366266415
2,2,11, 5, 1,23,15.00,30.00,Friday
1945,25.406164195972405
3320,18140492.788835313
2,2,11, 5, 1,23,30.00,45.00,Friday
1945,24.437605068364622
3320,52437488.05778339
2,2,11, 5, 1,23,45.00,60.00,Friday
1945,24.10232782103311
3320,39998765.01034821
2,2,11, 5, 1,24, 0.00,15.00,Friday
1945,25.236531426695116
3320,11931975.221804176
2,2,11, 5, 1,24,15.00,30.00,Friday
1945,24.330181360710938
3320,41968391.06945454
2,2,11, 5, 1,24,30.00,45.00,Friday
1945,24.013621888169745
3320,31499460.917114716
2,2,11, 5, 1,24,45.00,60.00,Friday
1945,25.13375743429909
3320,11772094.927388985
2,3,11, 6, 1, 1, 0.00,15.00,Saturday
1945,24.09544951912213
3320,38514583.242863305
2,3,11, 6, 1, 1,15.00,30.00,Saturday
1945,23.99978234730656
3320,28402092.586145025
2,3,11, 6, 1, 1,30.00,45.00,Saturday
1945,25.058948292226763
3320,11772094.927388985
2,3,11, 6, 1, 1,45.00,60.00,Saturday
1945,24.072297655360273
3320,35640989.249391615
2,3,11, 6, 1, 2, 0.00,15.00,Saturday
1945,23.999764614540084
3320,27633345.88645206
2,3,11, 6, 1, 2,15.00,30.00,Saturday
1945,25.01267123530744
3320,11772094.927388985
2,3,11, 6, 1, 2,30.00,45.00,Saturday
1945,24.053879839165134
3320,36347129.95166875
2,3,11, 6, 1, 2,45.00,60.00,Saturday
1945,23.999760000181478
3320,28703621.828996934
2,3,11, 6, 1, 3, 0.00,15.00,Saturday
1945,24.97403758373444
3320,11772094.927388985
2,3,11, 6, 1, 3,15.00,30.00,Saturday
1945,24.042050402126474
3320,36765145.39959599
2,3,11, 6, 1, 3,30.00,45.00,Saturday
1945,23.999775931095407
3320,29600321.027164474
2,3,11, 6, 1, 3,45.00,60.00,Saturday
1945,24.934243373568414
3320,11772094.927388985
2,3,11, 6, 1, 4, 0.00,15.00,Saturday
1945,24.03162223003825
3320,36910799.84461314
2,3,11, 6, 1, 4,15.00,30.00,Saturday
1945,23.999848655390398
3320,29901334.676783506
2,3,11, 6, 1, 4,30.00,45.00,Saturday
1945,24.90319174461877
3320,11772094.927388985
2,3,11, 6, 1, 4,45.00,60.00,Saturday
1945,24.022095056314267
3320,36905699.38391097
2,3,11, 6, 1, 5, 0.00,15.00,Saturday
1945,23.999864024122516
3320,30247425.702306755
2,3,11, 6, 1, 5,15.00,30.00,Saturday
1945,24.868647198333612
3320,11772094.927388985
2,3,11, 6, 1, 5,30.00,45.00,Saturday
1945,24.020526780705012
3320,35483454.87982318
2,3,11, 6, 1, 5,45.00,60.00,Saturday
1945,23.9998751802689
3320,30245210.87792474
2,3,11, 6, 1, 6, 0.00,15.00,Saturday
1945,23.999871934634545
3320,36579905.72108718
2,3,11, 6, 1, 6,15.00,30.00,Saturday
1945,23.99982626309449
3320,36909419.53246367
2,3,11, 6, 1, 6,30.00,45.00,Saturday
1945,23.999844571031435
3320,36404510.957429245
2,3,11, 6, 1, 6,45.00,60.00,Saturday
1945,24.032758330231758
3320,36011770.97217761
2,3,11, 6, 1, 7, 0.00,15.00,Saturday
1945,24.002101035735148
3320,30794562.94752209
2,3,11, 6, 1, 7,15.00,30.00,Saturday
1945,23.999998817087903
3320,30811749.642667126
2,3,11, 6, 1, 7,30.00,45.00,Saturday
1945,23.999839190208075
3320,31254592.65816891
2,3,11, 6, 1, 7,45.00,60.00,Saturday
1945,23.999853296971352
3320,32493673.486282527
2,3,11, 6, 1, 8, 0.00,15.00,Saturday
1945,23.999742487319665
3320,43829891.332477115
2,3,11, 6, 1, 8,15.00,30.00,Saturday
1945,23.99972243731481
3320,45688084.560434334
2,3,11, 6, 1, 8,30.00,45.00,Saturday
1945,23.9997559843627
3320,47083061.354312316
2,3,11, 6, 1, 8,45.00,60.00,Saturday
1945,23.99976009619592
3320,48679115.09755185
2,3,11, 6, 1, 9, 0.00,15.00,Saturday
1945,24.080331628689912
3320,50378758.82845486
2,3,11, 6, 1, 9,15.00,30.00,Saturday
1945,24.22673938498012
3320,51882278.364449754
2,3,11, 6, 1, 9,30.00,45.00,Saturday
1945,24.36761048858105
3320,53059164.89893914
2,3,11, 6, 1, 9,45.00,60.00,Saturday
1945,24.50598197285475
3320,54271557.72221238
2,3,11, 6, 1,10, 0.00,15.00,Saturday
1945,24.655292567739448
3320,55792512.56094148
2,3,11, 6, 1,10,15.00,30.00,Saturday
1945,24.805215355456795
3320,57403953.1514866
2,3,11, 6, 1,10,30.00,45.00,Saturday
1945,24.93993287362219
3320,59123616.80436143
2,3,11, 6, 1,10,45.00,60.00,Saturday
1945,25.07093863572781
3320,60894639.253280245
2,3,11, 6, 1,11, 0.00,15.00,Saturday
1945,25.187889410189392
3320,61984207.92267225
2,3,11, 6, 1,11,15.00,30.00,Saturday
1945,25.296167455479836
3320,62562079.45543826
2,3,11, 6, 1,11,30.00,45.00,Saturday
1945,25.391996118545563
3320,62865438.423031904
2,3,11, 6, 1,11,45.00,60.00,Saturday
1945,25.48885743968053
3320,63127905.361674294
2,3,11, 6, 1,12, 0.00,15.00,Saturday
1945,25.530516193789275
3320,54454938.3401021
2,3,11, 6, 1,12,15.00,30.00,Saturday
1945,25.62912597127678
3320,55558128.370713376
2,3,11, 6, 1,12,30.00,45.00,Saturday
1945,25.756439583372362
3320,56814114.33550885
2,3,11, 6, 1,12,45.00,60.00,Saturday
1945,25.874762475949712
3320,58055004.22024435
2,3,11, 6, 1,13, 0.00,15.00,Saturday
1945,25.95912638732411
3320,58422928.09415212
2,3,11, 6, 1,13,15.00,30.00,Saturday
1945,26.027753651652038
3320,58672988.913946375
2,3,11, 6, 1,13,30.00,45.00,Saturday
1945,26.075496347641444
3320,56934020.868916295
2,3,11, 6, 1,13,45.00,60.00,Saturday
1945,26.103103287146883
3320,60457838.8797568
2,3,11, 6, 1,14, 0.00,15.00,Saturday
1945,26.115199030729137
3320,56681719.02994938
2,3,11, 6, 1,14,15.00,30.00,Saturday
1945,26.116857513425288
3320,59470927.20018062
2,3,11, 6, 1,14,30.00,45.00,Saturday
1945,26.116659935328734
3320,56543059.36066329
2,3,11, 6, 1,14,45.00,60.00,Saturday
1945,26.11316812117529
3320,56003639.3139239
2,3,11, 6, 1,15, 0.00,15.00,Saturday
1945,26.115128928730982
3320,60093160.51323009
2,3,11, 6, 1,15,15.00,30.00,Saturday
1945,26.128090698147535
3320,59237511.65519372
2,3,11, 6, 1,15,30.00,45.00,Saturday
1945,26.145936479547945
3320,56291582.05053809
2,3,11, 6, 1,15,45.00,60.00,Saturday
1945,26.15582595808311
3320,61192943.74859266
2,3,11, 6, 1,16, 0.00,15.00,Saturday
1945,26.180180160186662
3320,57287903.1599074
2,3,11, 6, 1,16,15.00,30.00,Saturday
1945,26.177311912775306
3320,60338501.34768521
2,3,11, 6, 1,16,30.00,45.00,Saturday
1945,26.166594669157348
3320,61820892.16094669
2,3,11, 6, 1,16,45.00,60.00,Saturday
1945,26.14493440730536
3320,60859472.336462095
2,3,11, 6, 1,17, 0.00,15.00,Saturday
1945,26.0871260134104
3320,56606029.989568636
2,3,11, 6, 1,17,15.00,30.00,Saturday
1945,26.034524283035164
3320,56404572.13307851
2,3,11, 6, 1,17,30.00,45.00,Saturday
1945,26.005358086241856
3320,56112910.23700446
2,3,11, 6, 1,17,45.00,60.00,Saturday
1945,25.946953387435645
3320,56192007.59198542
2,3,11, 6, 1,18, 0.00,15.00,Saturday
1945,25.8998846017105
3320,54286242.09094163
2,3,11, 6, 1,18,15.00,30.00,Saturday
1945,25.87815385637912
3320,55118429.56215926
2,3,11, 6, 1,18,30.00,45.00,Saturday
1945,27.601297918902084
3320,11442107.215755358
2,3,11, 6, 1,18,45.00,60.00,Saturday
1945,25.687022421725786
3320,55478993.09681283
2,3,11, 6, 1,19, 0.00,15.00,Saturday
1945,25.242640999130643
3320,56304904.99730269
2,3,11, 6, 1,19,15.00,30.00,Saturday
1945,26.78138950946436
3320,12463010.941580404
2,3,11, 6, 1,19,30.00,45.00,Saturday
1945,25.011626043155296
3320,48424455.790497005
2,3,11, 6, 1,19,45.00,60.00,Saturday
1945,25.021172097608847
3320,51002933.191001415
2,3,11, 6, 1,20, 0.00,15.00,Saturday
1945,26.380020194589786
3320,12462970.927388985
2,3,11, 6, 1,20,15.00,30.00,Saturday
1945,24.70139162518993
3320,46019224.550439425
2,3,11, 6, 1,20,30.00,45.00,Saturday
1945,24.729694086633675
3320,47205761.66217756
2,3,11, 6, 1,20,45.00,60.00,Saturday
1945,26.07502150577648
3320,12462970.927388985
2,3,11, 6, 1,21, 0.00,15.00,Saturday
1945,24.499077848305397
3320,43486805.24890693
2,3,11, 6, 1,21,15.00,30.00,Saturday
1945,24.40311647775541
3320,40037515.4296538
2,3,11, 6, 1,21,30.00,45.00,Saturday
1945,25.786148970640618
3320,12462970.927388985
2,3,11, 6, 1,21,45.00,60.00,Saturday
1945,24.351647586857762
3320,40427073.57096277
2,3,11, 6, 1,22, 0.00,15.00,Saturday
1945,24.199207909854195
3320,35159438.25679213
2,3,11, 6, 1,22,15.00,30.00,Saturday
1945,25.55768526690238
3320,12462970.927388985
2,3,11, 6, 1,22,30.00,45.00,Saturday
1945,24.2819733876387
3320,39611563.19793228
2,3,11, 6, 1,22,45.00,60.00,Saturday
1945,24.107270149489455
3320,32541229.687755555
2,3,11, 6, 1,23, 0.00,15.00,Saturday
1945,25.412436669042595
3320,12462970.927388985
2,3,11, 6, 1,23,15.00,30.00,Saturday
1945,24.192331988391928
3320,40653021.578967296
2,3,11, 6, 1,23,30.00,45.00,Saturday
1945,24.052141389136818
3320,31176030.810208045
2,3,11, 6, 1,23,45.00,60.00,Saturday
1945,25.316685119193846
3320,12462970.927388985
2,3,11, 6, 1,24, 0.00,15.00,Saturday
1945,24.15784644193599
3320,38557689.482348345
2,3,11, 6, 1,24,15.00,30.00,Saturday
1945,23.99995939424407
3320,27882055.39750926
2,3,11, 6, 1,24,30.00,45.00,Saturday
1945,25.199228428604336
3320,11772094.927388987
2,3,11, 6, 1,24,45.00,60.00,Saturday
1945,24.117727663232692
3320,37260630.037973635
2,4,11, 7, 1, 1, 0.00,15.00,Sunday
1945,23.99990229145836
3320,27779230.869598117
2,4,11, 7, 1, 1,15.00,30.00,Sunday
1945,25.125726998785925
3320,11772094.927388987
2,4,11, 7, 1, 1,30.00,45.00,Sunday
1945,24.121506780550604
3320,38034864.09429047
2,4,11, 7, 1, 1,45.00,60.00,Sunday
1945,23.99986691215843
3320,28234882.03571535
2,4,11, 7, 1, 2, 0.00,15.00,Sunday
1945,25.066476905934266
3320,11772094.927388985
2,4,11, 7, 1, 2,15.00,30.00,Sunday
1945,24.074915683709193
3320,35042724.871372536
2,4,11, 7, 1, 2,30.00,45.00,Sunday
1945,23.999874256363533
3320,28705971.651521396
2,4,11, 7, 1, 2,45.00,60.00,Sunday
1945,25.01139174976095
3320,11772094.927388985
2,4,11, 7, 1, 3, 0.00,15.00,Sunday
1945,24.057300098050806
3320,35519020.56104022
2,4,11, 7, 1, 3,15.00,30.00,Sunday
1945,23.999921208635918
3320,29092888.965315346
2,4,11, 7, 1, 3,30.00,45.00,Sunday
1945,24.976115389583885
3320,11772094.927388985
2,4,11, 7, 1, 3,45.00,60.00,Sunday
1945,24.038495909638115
3320,33808578.995135486
2,4,11, 7, 1, 4, 0.00,15.00,Sunday
1945,23.999877073767596
3320,29230610.49487188
2,4,11, 7, 1, 4,15.00,30.00,Sunday
1945,24.95410268484137
3320,11772094.927388985
2,4,11, 7, 1, 4,30.00,45.00,Sunday
1945,24.03881101702966
3320,35659795.8877317
2,4,11, 7, 1, 4,45.00,60.00,Sunday
1945,23.999892872247134
3320,30050439.108781338
2,4,11, 7, 1, 5, 0.00,15.00,Sunday
1945,24.93391670594293
3320,11772094.927388985
2,4,11, 7, 1, 5,15.00,30.00,Sunday
1945,24.03112679178193
3320,34499108.37996547
2,4,11, 7, 1, 5,30.00,45.00,Sunday
1945,23.99989104522114
3320,29882606.515588686
2,4,11, 7, 1, 5,45.00,60.00,Sunday
1945,24.90251393326649
3320,11772094.927388985
2,4,11, 7, 1, 6, 0.00,15.00,Sunday
1945,24.02703312186241
3320,39997664.43118438
2,4,11, 7, 1, 6,15.00,30.00,Sunday
1945,23.99984509092878
3320,34168588.3145638
2,4,11, 7, 1, 6,30.00,45.00,Sunday
1945,24.911473054250482
3320,16767126.95117695
2,4,11, 7, 1, 6,45.00,60.00,Sunday
1945,24.022466998835945
3320,41128483.202119716
2,4,11, 7, 1, 7, 0.00,15.00,Sunday
1945,23.999880517021026
3320,29814628.958780058
2,4,11, 7, 1, 7,15.00,30.00,Sunday
1945,24.880864352154735
3320,11649555.95117695
2,4,11, 7, 1, 7,30.00,45.00,Sunday
1945,24.0215327864008
3320,35109179.6768094
2,4,11, 7, 1, 7,45.00,60.00,Sunday
1945,23.999940465009146
3320,29138154.72758557
2,4,11, 7, 1, 8, 0.00,15.00,Sunday
1945,25.153171091485632
3320,11455419.123781513
2,4,11, 7, 1, 8,15.00,30.00,Sunday
1945,24.104032847610704
3320,36055876.038291305
2,4,11, 7, 1, 8,30.00,45.00,Sunday
1945,24.0313803951456
3320,32230442.78600025
2,4,11, 7, 1, 8,45.00,60.00,Sunday
1945,25.495656251547796
3320,11415935.88461146
2,4,11, 7, 1, 9, 0.00,15.00,Sunday
1945,24.222472294913022
3320,42246687.09598153
2,4,11, 7, 1, 9,15.00,30.00,Sunday
1945,24.000023583287362
3320,35275851.76319677
2,4,11, 7, 1, 9,30.00,45.00,Sunday
1945,25.822390259113636
3320,11409529.548109004
2,4,11, 7, 1, 9,45.00,60.00,Sunday
1945,24.315685700970146
3320,42993204.95000328
2,4,11, 7, 1,10, 0.00,15.00,Sunday
1945,24.201343534592702
3320,38713810.36285865
2,4,11, 7, 1,10,15.00,30.00,Sunday
1945,26.22613433822187
3320,11409529.548109002
2,4,11, 7, 1,10,30.00,45.00,Sunday
1945,24.586231940037184
3320,44792074.03703541
2,4,11, 7, 1,10,45.00,60.00,Sunday
1945,25.120693339798756
3320,45815169.331418246
2,4,11, 7, 1,11, 0.00,15.00,Sunday
1945,26.792710907440068
3320,11409529.548109004
2,4,11, 7, 1,11,15.00,30.00,Sunday
1945,25.013146810509074
3320,45160913.749930225
2,4,11, 7, 1,11,30.00,45.00,Sunday
1945,25.456405672914514
3320,48613984.99277578
2,4,11, 7, 1,11,45.00,60.00,Sunday
1945,27.084637943145214
3320,11409529.548109004
2,4,11, 7, 1,12, 0.00,15.00,Sunday
1945,25.268689133569396
3320,48664062.97308856
2,4,11, 7, 1,12,15.00,30.00,Sunday
1945,25.679990454418853
3320,51117502.70998696
2,4,11, 7, 1,12,30.00,45.00,Sunday
1945,27.361784849705945
3320,11409529.548109004
2,4,11, 7, 1,12,45.00,60.00,Sunday
1945,25.677420458956462
3320,52243273.91426347
2,4,11, 7, 1,13, 0.00,15.00,Sunday
1945,25.898728065599798
3320,52858159.67810911
2,4,11, 7, 1,13,15.00,30.00,Sunday
1945,27.6816090757586
3320,11409529.548109002
2,4,11, 7, 1,13,30.00,45.00,Sunday
1945,25.972014508703648
3320,52135747.38346703
2,4,11, 7, 1,13,45.00,60.00,Sunday
1945,26.153502399055956
3320,54274974.39934893
2,4,11, 7, 1,14, 0.00,15.00,Sunday
1945,27.940197029352706
3320,11409529.548109002
2,4,11, 7, 1,14,15.00,30.00,Sunday
1945,26.210808012704746
3320,54974929.80988571
2,4,11, 7, 1,14,30.00,45.00,Sunday
1945,26.339765933245175
3320,54906706.70648803
2,4,11, 7, 1,14,45.00,60.00,Sunday
1945,28.088902765200938
3320,11409529.548109002
2,4,11, 7, 1,15, 0.00,15.00,Sunday
1945,26.31660127082305
3320,57265477.20061096
2,4,11, 7, 1,15,15.00,30.00,Sunday
1945,26.401387755492642
3320,56010842.72809182
2,4,11, 7, 1,15,30.00,45.00,Sunday
1945,28.15394171812084
3320,11409529.548109004
2,4,11, 7, 1,15,45.00,60.00,Sunday
1945,26.39925822756584
3320,57199797.79895046
2,4,11, 7, 1,16, 0.00,15.00,Sunday
1945,26.49328648535907
3320,57371911.04505433
2,4,11, 7, 1,16,15.00,30.00,Sunday
1945,28.24219844224277
3320,11409529.548109004
2,4,11, 7, 1,16,30.00,45.00,Sunday
1945,26.45560998340237